# vtk DataFile Version 4.2
Rod2D2N
ASCII

DATASET UNSTRUCTURED_GRID
POINTS 4 double
0 0 0 400 0 0 400 300 0 0 300 0

CELLS 4 12
2 0 1 2 2 1 2 0 2 2 3 2

CELL_TYPES 4
3
3
3
3


POINT_DATA 4

VECTORS displacement double
0 0 0 0.27118644067796616 0 0 0.05649717514124293 -0.22245762711864406 0 0 0 0

VECTORS force double
-15833.333333333336 3125 0 20000.000000000004 21874.999999999996 0 -0.0000000000009094947017729282 -24999.999999999996 0 -4166.666666666666 0 0

CELL_DATA 4

SCALARS e_axial double 1
LOOKUP_TABLE default
0.0006779661016949154 -0.0007415254237288136 -0.00017655367231638413 0.00014124293785310732

SCALARS s_axial double 1
LOOKUP_TABLE default
200.00000000000006 -218.75 -52.083333333333314 41.66666666666666

