# vtk DataFile Version 4.2
Rod1D2N
ASCII

DATASET UNSTRUCTURED_GRID
POINTS 4 double
0 0 0 0.1 0 0 0.2 0 0 0.3 0 0

CELLS 3 9
2 0 1 2 1 2 2 2 3

CELL_TYPES 3
3
3
3


POINT_DATA 4

VECTORS displacement double
-0.0043493333333333335 0 0 -0.0019429333333333331 0 0 -0.00036986666666666653 0 0 0 0 0

VECTORS force double
-96.256 0 0 1.8719999999999999 0 0 50 0 0 44.38399999999999 0 0

CELL_DATA 3

SCALARS e_axial double 1
LOOKUP_TABLE default
0.024064000000000002 0.015730666666666667 0.003698666666666666

SCALARS s_axial double 1
LOOKUP_TABLE default
4812.8 3146.133333333333 739.7333333333332

