# vtk DataFile Version 4.2
Rod1D2N
ASCII

DATASET UNSTRUCTURED_GRID
POINTS 4 double
0 0 0 0.1 0 0 0.2 0 0 0.3 0 0

CELLS 3 9
2 0 1 2 1 2 2 2 3

CELL_TYPES 3
3
3
3


POINT_DATA 4

VECTORS displacement double
-0.004583333333333333 0 0 -0.0020833333333333333 0 0 -0.0004166666666666667 0 0 0 0 0

VECTORS force double
-100.00000000000001 0 0 0 0 0 49.999999999999986 0 0 50.000000000000014 0 0

CELL_DATA 3

SCALARS e_axial double 1
LOOKUP_TABLE default
0.025000000000000005 0.016666666666666666 0.0041666666666666675

SCALARS s_axial double 1
LOOKUP_TABLE default
5000.000000000001 3333.3333333333335 833.3333333333335

