# vtk DataFile Version 4.2
Rod1D2N
ASCII

DATASET UNSTRUCTURED_GRID
POINTS 4 double
0 0 0 0.1 0 0 0.2 0 0 0.3 0 0

CELLS 3 9
2 0 1 2 1 2 2 2 3

CELL_TYPES 3
3
3
3


POINT_DATA 4

VECTORS displacement double
-0.0045833333333333325 0 0 -0.002083333333333333 0 0 -0.0004166666666666664 0 0 0 0 0

VECTORS force double
-99.99999999999997 0 0 -0.000000000000014210854715202004 0 0 50 0 0 49.999999999999986 0 0

CELL_DATA 3

SCALARS e_axial double 1
LOOKUP_TABLE default
0.024999999999999994 0.016666666666666663 0.004166666666666665

SCALARS s_axial double 1
LOOKUP_TABLE default
4999.999999999999 3333.3333333333326 833.333333333333

