# vtk DataFile Version 4.2
Rod1D2N
ASCII

DATASET UNSTRUCTURED_GRID
POINTS 4 double
0 0 0 0.1 0 0 0.2 0 0 0.3 0 0

CELLS 3 9
2 0 1 2 1 2 2 2 3

CELL_TYPES 3
3
3
3


POINT_DATA 4

VECTORS displacement double
-0.004580975152469333 0 0 -0.002081918424814933 0 0 -0.00041619503049386656 0 0 0 0 0

VECTORS force double
-99.96226910617601 0 0 0.018865446911998873 0 0 50 0 0 49.943403659264 0 0

CELL_DATA 3

SCALARS e_axial double 1
LOOKUP_TABLE default
0.024990567276544 0.016657233943210666 0.0041619503049386665

SCALARS s_axial double 1
LOOKUP_TABLE default
4998.1134553088 3331.4467886421335 832.3900609877332

