# vtk DataFile Version 4.2
Tri2D3N
ASCII

DATASET UNSTRUCTURED_GRID
POINTS 4 double
0 0 0 1000 0 0 0 1000 0 1000 1000 0

CELLS 2 8
3 0 1 2 3 3 2 1

CELL_TYPES 2
5
5


POINT_DATA 4

VECTORS displacement double
0 0 0 -83.57142836318641 -43.333331133337666 0 0 40.238095633014204 0 83.57142756796429 -83.57142630227759 0

VECTORS force double
99999998.73455808 -1.416219338774681 0 -99999999.89057626 1.1560182124376297 0 -99999997.97763517 0.2602011412382126 0 99999999.13365339 -0.000000014901161193847656 0

CELL_DATA 2

SCALARS e_xx double 1
LOOKUP_TABLE default
-0.08357142836318641 0.08357142756796429

SCALARS e_yy double 1
LOOKUP_TABLE default
0.040238095633014205 -0.04023809516893992

SCALARS e_xy double 1
LOOKUP_TABLE default
-0.04333333113333766 0.04333333399585892

SCALARS s_xx double 1
LOOKUP_TABLE default
-16499.999924603573 16499.999773218995

SCALARS s_yy double 1
LOOKUP_TABLE default
3500.0001055519115 -3500.000053511684

SCALARS s_xy double 1
LOOKUP_TABLE default
-3499.999822308041 3500.000053511681

