# vtk DataFile Version 4.2
Quad2D4N
ASCII

DATASET UNSTRUCTURED_GRID
POINTS 9 double
0 0 0 500 0 0 1000 0 0 0 500 0 500 500 0 1000 500 0 0 1000 0 500 1000 0 1000 1000 0

CELLS 4 20
4 0 1 4 3 4 1 2 5 4 4 3 4 7 6 4 4 5 8 7

CELL_TYPES 4
9
9
9
9


POINT_DATA 9

VECTORS displacement double
0 0 0 -0.12745098039215685 -0.06372549019607826 0 -0.25490196078431376 -0.2549019607843135 0 -0.0000000000000000655623414281423 0.019117647058823614 0 -0.000000000000000057907716686632 -0.04460784313725475 0 -0.00000000000000005575143754049517 -0.23578431372549 0 0 0.00000000000000013123059167934152 0 0.12745098039215683 -0.0637254901960783 0 0.2549019607843137 -0.2549019607843136 0

VECTORS force double
99999.99999999994 -0.00000000008731149137020111 0 0.000000000014551915228366852 0 0 -100000.00000000001 0 0 -0.000000000010913936421275139 0 0 -0.000000000029103830456733704 -0.000000000029103830456733704 0 0.000000000004547473508864641 -0.000000000029103830456733704 0 -99999.99999999997 -0.000000000004547473508864641 0 0.000000000004547473508864641 -0.00000000003637978807091713 0 100000 0 0

SCALARS e11 double 1
LOOKUP_TABLE default
-0.00025490196078431374 -0.0002549019607843138 -0.00025490196078431385 0.000000000000000000020328790734103208 0.000000000000000000010164395367051604 0 0.00025490196078431363 0.00025490196078431374 0.00025490196078431385

SCALARS e22 double 1
LOOKUP_TABLE default
0.00003823529411764723 0.00003823529411764703 0.000038235294117647 0.00000000000000000013552527156068805 -0.00000000000000000002710505431213761 -0.00000000000000000007115076756936123 -0.00003823529411764697 -0.000038235294117647055 -0.000038235294117647184

SCALARS e12 double 1
LOOKUP_TABLE default
-0.00012745098039215665 0.00000000000000000010842021724855044 0.00012745098039215711 -0.00012745098039215676 0.00000000000000000007453889935837843 0.00012745098039215692 -0.00012745098039215673 0.00000000000000000002710505431213761 0.0001274509803921568

SCALARS s11 double 1
LOOKUP_TABLE default
-56.17647058823528 -56.176470588235304 -56.17647058823532 0.000000000000014210854715202004 0.0000000000000002220446049250313 -0.000000000000005773159728050814 56.176470588235276 56.17647058823529 56.17647058823529

SCALARS s22 double 1
LOOKUP_TABLE default
-8.823529411764662 -8.823529411764712 -8.823529411764722 0.000000000000032862601528904634 -0.000000000000007105427357601002 -0.00000000000001509903313490213 8.823529411764719 8.823529411764703 8.823529411764682

SCALARS s12 double 1
LOOKUP_TABLE default
-10.294117647058805 0.000000000000009769962616701378 10.29411764705884 -10.294117647058812 0.000000000000004884981308350689 10.294117647058828 -10.29411764705881 0.0000000000000017763568394002505 10.294117647058815

CELL_DATA 4

