# vtk DataFile Version 4.2
Quad2D4N
ASCII

DATASET UNSTRUCTURED_GRID
POINTS 9 double
0 0 0 0.5 0 0 1 0 0 0 0.5 0 0.5 0.5 0 1 0.5 0 0 1 0 0.5 1 0 1 1 0

CELLS 4 20
4 0 1 4 3 4 1 2 5 4 4 3 4 7 6 4 4 5 8 7

CELL_TYPES 4
9
9
9
9


POINT_DATA 9

VECTORS displacement double
0 0 0 -2.686567164179103 -1.3432835820895477 0 -5.373134328358207 -5.373134328358201 0 -0.00000000000000005961914757506426 0.3358208955223901 0 0.0000000000000003740577992422112 -1.0074626865671599 0 0.00000000000000041867158160871124 -5.037313432835813 0 0 0.0000000000000029704509267424523 0 2.686567164179103 -1.343283582089548 0 5.373134328358207 -5.3731343283582005 0

VECTORS force double
0.9999999999999984 -0.0000000000000014432899320127035 0 0 -0.0000000000000002220446049250313 0 -0.9999999999999999 -0.0000000000000002220446049250313 0 0 -0.00000000000000016653345369377348 0 0.0000000000000004440892098500626 0.0000000000000002220446049250313 0 0 0.0000000000000002220446049250313 0 -0.9999999999999991 -0.000000000000000013877787807814457 0 0.0000000000000004996003610813204 0.00000000000000011102230246251565 0 1 0 0

SCALARS e11 double 1
LOOKUP_TABLE default
-5.373134328358205 -5.373134328358207 -5.3731343283582085 0.0000000000000011102230246251565 0.0000000000000007771561172376096 0.0000000000000003885780586188048 5.373134328358205 5.373134328358207 5.373134328358208

SCALARS e22 double 1
LOOKUP_TABLE default
0.6716417910447803 0.6716417910447761 0.6716417910447773 0.000000000000002886579864025407 0.0000000000000003608224830031759 0.0000000000000009992007221626409 -0.6716417910447744 -0.6716417910447763 -0.671641791044775

SCALARS e12 double 1
LOOKUP_TABLE default
-2.686567164179096 0.0000000000000024424906541753444 2.6865671641791034 -2.6865671641791 0.0000000000000027755575615628914 2.686567164179108 -2.686567164179102 0.000000000000003774758283725532 2.686567164179112

SCALARS s11 double 1
LOOKUP_TABLE default
-5.552238805970146 -5.552238805970147 -5.552238805970148 0.0000000000000017763568394002505 0.0000000000000007771561172376096 0.0000000000000005551115123125783 5.552238805970145 5.552238805970147 5.5522388059701475

SCALARS s22 double 1
LOOKUP_TABLE default
-0.7164179104477559 -0.7164179104477607 -0.7164179104477602 0.0000000000000033861802251067274 0.0000000000000004996003610813204 0.0000000000000012212453270876722 0.7164179104477622 0.7164179104477604 0.7164179104477619

SCALARS s12 double 1
LOOKUP_TABLE default
-1.0746268656716385 0.0000000000000008881784197001252 1.0746268656716413 -1.07462686567164 0.00000000000000127675647831893 1.0746268656716431 -1.0746268656716407 0.0000000000000015543122344752192 1.0746268656716447

CELL_DATA 4

