# vtk DataFile Version 4.2
Tri2D3N
ASCII

DATASET UNSTRUCTURED_GRID
POINTS 4 double
0 0 0 1 0 0 1 1 0 0 1 0

CELLS 2 8
3 0 1 3 3 2 3 1

CELL_TYPES 2
5
5


POINT_DATA 4

VECTORS displacement double
0 0 0 -1.7187499999999996 -0.9374999999999994 0 1.7187499999999998 -1.7187499999999991 0 0 0.78125 0

VECTORS force double
0.9999999999999997 -0.00000000000000016653345369377348 0 -1 -0.00000000000000011102230246251565 0 1 0.0000000000000002220446049250313 0 -0.9999999999999998 0 0

CELL_DATA 2

SCALARS e_xx double 1
LOOKUP_TABLE default
-1.7187499999999996 1.7187499999999998

SCALARS e_yy double 1
LOOKUP_TABLE default
0.78125 -0.7812499999999997

SCALARS e_xy double 1
LOOKUP_TABLE default
-0.9374999999999994 0.9375000000000002

SCALARS s_xx double 1
LOOKUP_TABLE default
-1.6249999999999996 1.6249999999999998

SCALARS s_yy double 1
LOOKUP_TABLE default
0.37500000000000017 -0.37499999999999967

SCALARS s_xy double 1
LOOKUP_TABLE default
-0.3749999999999998 0.3750000000000001

