# vtk DataFile Version 4.2
Tri2D3N
ASCII

DATASET UNSTRUCTURED_GRID
POINTS 4 double
0 0 0 1 0 0 0 1 0 1 1 0

CELLS 2 8
3 0 1 2 3 3 2 1

CELL_TYPES 2
5
5


POINT_DATA 4

VECTORS displacement double
0 0 0 -1.7187499999999998 -0.9374999999999999 0 0 0.7812499999999999 0 1.7187500000000002 -1.71875 0

VECTORS force double
0.9999999999999999 0.00000000000000005551115123125783 0 -0.9999999999999998 -0.00000000000000011102230246251565 0 -1 -0.00000000000000005551115123125783 0 1.0000000000000002 0.0000000000000002220446049250313 0

CELL_DATA 2

SCALARS e_xx double 1
LOOKUP_TABLE default
-1.7187499999999998 1.7187500000000002

SCALARS e_yy double 1
LOOKUP_TABLE default
0.7812499999999999 -0.7812500000000001

SCALARS e_xy double 1
LOOKUP_TABLE default
-0.9374999999999999 0.9375000000000001

SCALARS s_xx double 1
LOOKUP_TABLE default
-1.6249999999999998 1.625

SCALARS s_yy double 1
LOOKUP_TABLE default
0.3749999999999999 -0.3750000000000001

SCALARS s_xy double 1
LOOKUP_TABLE default
-0.375 0.37500000000000006

