# vtk DataFile Version 4.2
Quad2D4N
ASCII

DATASET UNSTRUCTURED_GRID
POINTS 4 double
0 0 0 1 0 0 1 1 0 0 1 0

CELLS 1 5
4 0 1 2 3

CELL_TYPES 1
9


POINT_DATA 4

VECTORS displacement double
0 0 0 -4.090909090909089 -4.090909090909086 0 4.090909090909089 -4.090909090909087 0 0 0.000000000000001020997798894517 0

VECTORS force double
0.9999999999999992 -0.0000000000000005169995246056695 0 -0.9999999999999998 0.00000000000000019451197012029184 0 1 -0.00000000000000039871152989919526 0 -0.9999999999999992 0.00000000000000002730969399385012 0

CELL_DATA 1

