# vtk DataFile Version 4.2
Quad2D4N
ASCII

DATASET UNSTRUCTURED_GRID
POINTS 4 double
0 0 0 1 0 0 1 1 0 0 1 0

CELLS 1 5
4 0 1 2 3

CELL_TYPES 1
9


POINT_DATA 4

VECTORS displacement double
0 0 0 -4.09090909090909 -4.090909090909088 0 4.09090909090909 -4.090909090909088 0 0 0.0000000000000005071700635219464 0

VECTORS force double
0.9999999999999993 -0.0000000000000004795827035161093 0 -1.0000000000000002 0.00000000000000009806970050855554 0 1.0000000000000002 0.00000000000000002254089171208649 0 -0.9999999999999994 -0.00000000000000008511709855459538 0

CELL_DATA 1

