# vtk DataFile Version 4.2
Tri2D3N
ASCII

DATASET UNSTRUCTURED_GRID
POINTS 4 float
0 0 0 1000 0 0 0 1000 0 1000 1000 0

CELLS 2 8
3 0 1 3 3 3 2 0

CELL_TYPES 2
5
5


POINT_DATA 4

VECTORS displacement float
0 0 0 -83.57143 -123.80952 0 0 -40.238094 0 83.57141 -83.57142 0

VECTORS force float
100000000 8 0 -100000010 -8 0 -99999980 -4 0 99999980 0 0

CELL_DATA 2

SCALARS e_xx float 1
LOOKUP_TABLE default
-0.083571434 0.08357141

SCALARS e_yy float 1
LOOKUP_TABLE default
0.040238105 -0.040238097

SCALARS e_xy float 1
LOOKUP_TABLE default
0.04333332 -0.04333332

SCALARS s_xx float 1
LOOKUP_TABLE default
-16500.002 16499.996

SCALARS s_yy float 1
LOOKUP_TABLE default
3500.002 -3500.0015

SCALARS s_xy float 1
LOOKUP_TABLE default
3499.9993 -3499.9993

