# vtk DataFile Version 4.2
Tri2D3N
ASCII

DATASET UNSTRUCTURED_GRID
POINTS 4 double
0 0 0 1 0 0 1 1 0 0 1 0

CELLS 2 8
3 0 1 3 3 2 3 1

CELL_TYPES 2
5
5


POINT_DATA 4

VECTORS displacement double
0 0 0 -1.7187080004408433 -0.9372782875924779 0 1.7186526193541707 -1.7185266596710407 0 0 0.781265261932146 0

VECTORS force double
0.9999312228293259 -0.00005808211986979561 0 -0.9999893049491957 0.00005645834284839779 0 0.9999620203501147 0.000001623777021259043 0 -0.9999039382302449 0 0

CELL_DATA 2

SCALARS e_xx double 1
LOOKUP_TABLE default
-1.7187080004408433 1.7186526193541707

SCALARS e_yy double 1
LOOKUP_TABLE default
0.781265261932146 -0.7812483720785628

SCALARS e_xy double 1
LOOKUP_TABLE default
-0.9372782875924779 0.9375686981918273

SCALARS s_xx double 1
LOOKUP_TABLE default
-1.6249511306216604 1.6248965614234987

SCALARS s_yy double 1
LOOKUP_TABLE default
0.3750274792767308 -0.3750242317226881

SCALARS s_xy double 1
LOOKUP_TABLE default
-0.37491131503699116 0.37502747927673097

