# vtk DataFile Version 4.2
Tri2D3N
ASCII

DATASET UNSTRUCTURED_GRID
POINTS 4 float
0 0 0 1 0 0 1 1 0 0 1 0

CELLS 2 8
3 0 1 3 3 2 3 1

CELL_TYPES 2
5
5


POINT_DATA 4

VECTORS displacement float
0 0 0 -1.7187499 -0.9375003 0 1.7187504 -1.7187505 0 0 0.78125006 0

VECTORS force float
1.0000001 0.000000029802322 0 -0.9999999 0 0 1.0000001 -0.000000029802322 0 -1.0000004 0.00000011920929 0

CELL_DATA 2

SCALARS e_xx float 1
LOOKUP_TABLE default
-1.7187499 1.7187504

SCALARS e_yy float 1
LOOKUP_TABLE default
0.78125006 -0.7812502

SCALARS e_xy float 1
LOOKUP_TABLE default
-0.9375003 0.9374997

SCALARS s_xx float 1
LOOKUP_TABLE default
-1.6249999 1.6250005

SCALARS s_yy float 1
LOOKUP_TABLE default
0.37500012 -0.3750001

SCALARS s_xy float 1
LOOKUP_TABLE default
-0.37500015 0.3749999

