# vtk DataFile Version 4.2
Quad2D4N
ASCII

DATASET UNSTRUCTURED_GRID
POINTS 1681 double
0 0 0 25 0 0 50 0 0 75 0 0 100 0 0 125 0 0 150 0 0 175 0 0 200 0 0 225 0 0 250 0 0 275 0 0 300 0 0 325 0 0 350 0 0 375 0 0 400 0 0 425 0 0 450 0 0 475 0 0 500 0 0 525 0 0 550 0 0 575 0 0 600 0 0 625 0 0 650 0 0 675 0 0 700 0 0 725 0 0 750 0 0 775 0 0 800 0 0 825 0 0 850 0 0 875 0 0 900 0 0 925 0 0 950 0 0 975 0 0 1000 0 0 0 25 0 25 25 0 50 25 0 75 25 0 100 25 0 125 25 0 150 25 0 175 25 0 200 25 0 225 25 0 250 25 0 275 25 0 300 25 0 325 25 0 350 25 0 375 25 0 400 25 0 425 25 0 450 25 0 475 25 0 500 25 0 525 25 0 550 25 0 575 25 0 600 25 0 625 25 0 650 25 0 675 25 0 700 25 0 725 25 0 750 25 0 775 25 0 800 25 0 825 25 0 850 25 0 875 25 0 900 25 0 925 25 0 950 25 0 975 25 0 1000 25 0 0 50 0 25 50 0 50 50 0 75 50 0 100 50 0 125 50 0 150 50 0 175 50 0 200 50 0 225 50 0 250 50 0 275 50 0 300 50 0 325 50 0 350 50 0 375 50 0 400 50 0 425 50 0 450 50 0 475 50 0 500 50 0 525 50 0 550 50 0 575 50 0 600 50 0 625 50 0 650 50 0 675 50 0 700 50 0 725 50 0 750 50 0 775 50 0 800 50 0 825 50 0 850 50 0 875 50 0 900 50 0 925 50 0 950 50 0 975 50 0 1000 50 0 0 75 0 25 75 0 50 75 0 75 75 0 100 75 0 125 75 0 150 75 0 175 75 0 200 75 0 225 75 0 250 75 0 275 75 0 300 75 0 325 75 0 350 75 0 375 75 0 400 75 0 425 75 0 450 75 0 475 75 0 500 75 0 525 75 0 550 75 0 575 75 0 600 75 0 625 75 0 650 75 0 675 75 0 700 75 0 725 75 0 750 75 0 775 75 0 800 75 0 825 75 0 850 75 0 875 75 0 900 75 0 925 75 0 950 75 0 975 75 0 1000 75 0 0 100 0 25 100 0 50 100 0 75 100 0 100 100 0 125 100 0 150 100 0 175 100 0 200 100 0 225 100 0 250 100 0 275 100 0 300 100 0 325 100 0 350 100 0 375 100 0 400 100 0 425 100 0 450 100 0 475 100 0 500 100 0 525 100 0 550 100 0 575 100 0 600 100 0 625 100 0 650 100 0 675 100 0 700 100 0 725 100 0 750 100 0 775 100 0 800 100 0 825 100 0 850 100 0 875 100 0 900 100 0 925 100 0 950 100 0 975 100 0 1000 100 0 0 125 0 25 125 0 50 125 0 75 125 0 100 125 0 125 125 0 150 125 0 175 125 0 200 125 0 225 125 0 250 125 0 275 125 0 300 125 0 325 125 0 350 125 0 375 125 0 400 125 0 425 125 0 450 125 0 475 125 0 500 125 0 525 125 0 550 125 0 575 125 0 600 125 0 625 125 0 650 125 0 675 125 0 700 125 0 725 125 0 750 125 0 775 125 0 800 125 0 825 125 0 850 125 0 875 125 0 900 125 0 925 125 0 950 125 0 975 125 0 1000 125 0 0 150 0 25 150 0 50 150 0 75 150 0 100 150 0 125 150 0 150 150 0 175 150 0 200 150 0 225 150 0 250 150 0 275 150 0 300 150 0 325 150 0 350 150 0 375 150 0 400 150 0 425 150 0 450 150 0 475 150 0 500 150 0 525 150 0 550 150 0 575 150 0 600 150 0 625 150 0 650 150 0 675 150 0 700 150 0 725 150 0 750 150 0 775 150 0 800 150 0 825 150 0 850 150 0 875 150 0 900 150 0 925 150 0 950 150 0 975 150 0 1000 150 0 0 175 0 25 175 0 50 175 0 75 175 0 100 175 0 125 175 0 150 175 0 175 175 0 200 175 0 225 175 0 250 175 0 275 175 0 300 175 0 325 175 0 350 175 0 375 175 0 400 175 0 425 175 0 450 175 0 475 175 0 500 175 0 525 175 0 550 175 0 575 175 0 600 175 0 625 175 0 650 175 0 675 175 0 700 175 0 725 175 0 750 175 0 775 175 0 800 175 0 825 175 0 850 175 0 875 175 0 900 175 0 925 175 0 950 175 0 975 175 0 1000 175 0 0 200 0 25 200 0 50 200 0 75 200 0 100 200 0 125 200 0 150 200 0 175 200 0 200 200 0 225 200 0 250 200 0 275 200 0 300 200 0 325 200 0 350 200 0 375 200 0 400 200 0 425 200 0 450 200 0 475 200 0 500 200 0 525 200 0 550 200 0 575 200 0 600 200 0 625 200 0 650 200 0 675 200 0 700 200 0 725 200 0 750 200 0 775 200 0 800 200 0 825 200 0 850 200 0 875 200 0 900 200 0 925 200 0 950 200 0 975 200 0 1000 200 0 0 225 0 25 225 0 50 225 0 75 225 0 100 225 0 125 225 0 150 225 0 175 225 0 200 225 0 225 225 0 250 225 0 275 225 0 300 225 0 325 225 0 350 225 0 375 225 0 400 225 0 425 225 0 450 225 0 475 225 0 500 225 0 525 225 0 550 225 0 575 225 0 600 225 0 625 225 0 650 225 0 675 225 0 700 225 0 725 225 0 750 225 0 775 225 0 800 225 0 825 225 0 850 225 0 875 225 0 900 225 0 925 225 0 950 225 0 975 225 0 1000 225 0 0 250 0 25 250 0 50 250 0 75 250 0 100 250 0 125 250 0 150 250 0 175 250 0 200 250 0 225 250 0 250 250 0 275 250 0 300 250 0 325 250 0 350 250 0 375 250 0 400 250 0 425 250 0 450 250 0 475 250 0 500 250 0 525 250 0 550 250 0 575 250 0 600 250 0 625 250 0 650 250 0 675 250 0 700 250 0 725 250 0 750 250 0 775 250 0 800 250 0 825 250 0 850 250 0 875 250 0 900 250 0 925 250 0 950 250 0 975 250 0 1000 250 0 0 275 0 25 275 0 50 275 0 75 275 0 100 275 0 125 275 0 150 275 0 175 275 0 200 275 0 225 275 0 250 275 0 275 275 0 300 275 0 325 275 0 350 275 0 375 275 0 400 275 0 425 275 0 450 275 0 475 275 0 500 275 0 525 275 0 550 275 0 575 275 0 600 275 0 625 275 0 650 275 0 675 275 0 700 275 0 725 275 0 750 275 0 775 275 0 800 275 0 825 275 0 850 275 0 875 275 0 900 275 0 925 275 0 950 275 0 975 275 0 1000 275 0 0 300 0 25 300 0 50 300 0 75 300 0 100 300 0 125 300 0 150 300 0 175 300 0 200 300 0 225 300 0 250 300 0 275 300 0 300 300 0 325 300 0 350 300 0 375 300 0 400 300 0 425 300 0 450 300 0 475 300 0 500 300 0 525 300 0 550 300 0 575 300 0 600 300 0 625 300 0 650 300 0 675 300 0 700 300 0 725 300 0 750 300 0 775 300 0 800 300 0 825 300 0 850 300 0 875 300 0 900 300 0 925 300 0 950 300 0 975 300 0 1000 300 0 0 325 0 25 325 0 50 325 0 75 325 0 100 325 0 125 325 0 150 325 0 175 325 0 200 325 0 225 325 0 250 325 0 275 325 0 300 325 0 325 325 0 350 325 0 375 325 0 400 325 0 425 325 0 450 325 0 475 325 0 500 325 0 525 325 0 550 325 0 575 325 0 600 325 0 625 325 0 650 325 0 675 325 0 700 325 0 725 325 0 750 325 0 775 325 0 800 325 0 825 325 0 850 325 0 875 325 0 900 325 0 925 325 0 950 325 0 975 325 0 1000 325 0 0 350 0 25 350 0 50 350 0 75 350 0 100 350 0 125 350 0 150 350 0 175 350 0 200 350 0 225 350 0 250 350 0 275 350 0 300 350 0 325 350 0 350 350 0 375 350 0 400 350 0 425 350 0 450 350 0 475 350 0 500 350 0 525 350 0 550 350 0 575 350 0 600 350 0 625 350 0 650 350 0 675 350 0 700 350 0 725 350 0 750 350 0 775 350 0 800 350 0 825 350 0 850 350 0 875 350 0 900 350 0 925 350 0 950 350 0 975 350 0 1000 350 0 0 375 0 25 375 0 50 375 0 75 375 0 100 375 0 125 375 0 150 375 0 175 375 0 200 375 0 225 375 0 250 375 0 275 375 0 300 375 0 325 375 0 350 375 0 375 375 0 400 375 0 425 375 0 450 375 0 475 375 0 500 375 0 525 375 0 550 375 0 575 375 0 600 375 0 625 375 0 650 375 0 675 375 0 700 375 0 725 375 0 750 375 0 775 375 0 800 375 0 825 375 0 850 375 0 875 375 0 900 375 0 925 375 0 950 375 0 975 375 0 1000 375 0 0 400 0 25 400 0 50 400 0 75 400 0 100 400 0 125 400 0 150 400 0 175 400 0 200 400 0 225 400 0 250 400 0 275 400 0 300 400 0 325 400 0 350 400 0 375 400 0 400 400 0 425 400 0 450 400 0 475 400 0 500 400 0 525 400 0 550 400 0 575 400 0 600 400 0 625 400 0 650 400 0 675 400 0 700 400 0 725 400 0 750 400 0 775 400 0 800 400 0 825 400 0 850 400 0 875 400 0 900 400 0 925 400 0 950 400 0 975 400 0 1000 400 0 0 425 0 25 425 0 50 425 0 75 425 0 100 425 0 125 425 0 150 425 0 175 425 0 200 425 0 225 425 0 250 425 0 275 425 0 300 425 0 325 425 0 350 425 0 375 425 0 400 425 0 425 425 0 450 425 0 475 425 0 500 425 0 525 425 0 550 425 0 575 425 0 600 425 0 625 425 0 650 425 0 675 425 0 700 425 0 725 425 0 750 425 0 775 425 0 800 425 0 825 425 0 850 425 0 875 425 0 900 425 0 925 425 0 950 425 0 975 425 0 1000 425 0 0 450 0 25 450 0 50 450 0 75 450 0 100 450 0 125 450 0 150 450 0 175 450 0 200 450 0 225 450 0 250 450 0 275 450 0 300 450 0 325 450 0 350 450 0 375 450 0 400 450 0 425 450 0 450 450 0 475 450 0 500 450 0 525 450 0 550 450 0 575 450 0 600 450 0 625 450 0 650 450 0 675 450 0 700 450 0 725 450 0 750 450 0 775 450 0 800 450 0 825 450 0 850 450 0 875 450 0 900 450 0 925 450 0 950 450 0 975 450 0 1000 450 0 0 475 0 25 475 0 50 475 0 75 475 0 100 475 0 125 475 0 150 475 0 175 475 0 200 475 0 225 475 0 250 475 0 275 475 0 300 475 0 325 475 0 350 475 0 375 475 0 400 475 0 425 475 0 450 475 0 475 475 0 500 475 0 525 475 0 550 475 0 575 475 0 600 475 0 625 475 0 650 475 0 675 475 0 700 475 0 725 475 0 750 475 0 775 475 0 800 475 0 825 475 0 850 475 0 875 475 0 900 475 0 925 475 0 950 475 0 975 475 0 1000 475 0 0 500 0 25 500 0 50 500 0 75 500 0 100 500 0 125 500 0 150 500 0 175 500 0 200 500 0 225 500 0 250 500 0 275 500 0 300 500 0 325 500 0 350 500 0 375 500 0 400 500 0 425 500 0 450 500 0 475 500 0 500 500 0 525 500 0 550 500 0 575 500 0 600 500 0 625 500 0 650 500 0 675 500 0 700 500 0 725 500 0 750 500 0 775 500 0 800 500 0 825 500 0 850 500 0 875 500 0 900 500 0 925 500 0 950 500 0 975 500 0 1000 500 0 0 525 0 25 525 0 50 525 0 75 525 0 100 525 0 125 525 0 150 525 0 175 525 0 200 525 0 225 525 0 250 525 0 275 525 0 300 525 0 325 525 0 350 525 0 375 525 0 400 525 0 425 525 0 450 525 0 475 525 0 500 525 0 525 525 0 550 525 0 575 525 0 600 525 0 625 525 0 650 525 0 675 525 0 700 525 0 725 525 0 750 525 0 775 525 0 800 525 0 825 525 0 850 525 0 875 525 0 900 525 0 925 525 0 950 525 0 975 525 0 1000 525 0 0 550 0 25 550 0 50 550 0 75 550 0 100 550 0 125 550 0 150 550 0 175 550 0 200 550 0 225 550 0 250 550 0 275 550 0 300 550 0 325 550 0 350 550 0 375 550 0 400 550 0 425 550 0 450 550 0 475 550 0 500 550 0 525 550 0 550 550 0 575 550 0 600 550 0 625 550 0 650 550 0 675 550 0 700 550 0 725 550 0 750 550 0 775 550 0 800 550 0 825 550 0 850 550 0 875 550 0 900 550 0 925 550 0 950 550 0 975 550 0 1000 550 0 0 575 0 25 575 0 50 575 0 75 575 0 100 575 0 125 575 0 150 575 0 175 575 0 200 575 0 225 575 0 250 575 0 275 575 0 300 575 0 325 575 0 350 575 0 375 575 0 400 575 0 425 575 0 450 575 0 475 575 0 500 575 0 525 575 0 550 575 0 575 575 0 600 575 0 625 575 0 650 575 0 675 575 0 700 575 0 725 575 0 750 575 0 775 575 0 800 575 0 825 575 0 850 575 0 875 575 0 900 575 0 925 575 0 950 575 0 975 575 0 1000 575 0 0 600 0 25 600 0 50 600 0 75 600 0 100 600 0 125 600 0 150 600 0 175 600 0 200 600 0 225 600 0 250 600 0 275 600 0 300 600 0 325 600 0 350 600 0 375 600 0 400 600 0 425 600 0 450 600 0 475 600 0 500 600 0 525 600 0 550 600 0 575 600 0 600 600 0 625 600 0 650 600 0 675 600 0 700 600 0 725 600 0 750 600 0 775 600 0 800 600 0 825 600 0 850 600 0 875 600 0 900 600 0 925 600 
[...]
POINT_DATA 1681

VECTORS displacement double
0 0 0 -0.11034817630343603 0.10351040047749424 0 -0.17393183959941463 0.12264875192754172 0 -0.2140065650587349 0.12395000954838492 0 -0.24281152642060636 0.11773717143445261 0 -0.2653023253521749 0.1075451714602342 0 -0.2838039351845173 0.09486740908754855 0 -0.2995817521756568 0.08050046851466107 0 -0.3134038740699266 0.06491458609016049 0 -0.32577366566316984 0.048407130174687424 0 -0.3370397616126704 0.031174535521778488 0 -0.3474538792314511 0.013350485329062148 0 -0.35720375816878014 -0.004972215230209412 0 -0.3664331673056352 -0.023728325754919705 0 -0.37525472214957845 -0.042871678280546305 0 -0.38375848823280834 -0.06236955887424596 0 -0.39201800918302954 -0.08219888923180363 0 -0.40009470968232924 -0.10234358790263465 0 -0.4080412507424667 -0.12279273954008996 0 -0.41590420483085755 -0.1435393441397455 0 -0.42372629719377025 -0.16457950543121813 0 -0.43154838955668234 -0.18591197385912964 0 -0.43941134364507295 -0.20753799897885794 0 -0.44735788470521015 -0.2294614770607867 0 -0.45543458520450975 -0.25168940810933943 0 -0.46369410615473083 -0.27423270747116585 0 -0.47219787223796056 -0.29710745659685034 0 -0.4810194270819038 -0.3203367337906076 0 -0.49024883621875887 -0.34395325298528107 0 -0.49999871515608807 -0.3680031821453933 0 -0.510412832774869 -0.3925517616720613 0 -0.52167892872437 -0.4176917967385368 0 -0.5340487203176132 -0.4435569705424485 0 -0.5478708422118832 -0.47034371783733303 0 -0.5636486592030231 -0.4983494069838308 0 -0.5821502690353659 -0.5280442743305306 0 -0.6046410679669352 -0.5602249040756976 0 -0.6334460293288078 -0.5963846956811514 0 -0.673520754788129 -0.6400585830213825 0 -0.7371044180841089 -0.7015695641908194 0 -0.8474525943875446 -0.8474525943877161 0 -0.1842744665591076 0.039007532796104555 0 -0.18269912008274317 0.11138281842925585 0 -0.19896209911689516 0.13096509025135755 0 -0.220383219353393 0.13107955432574075 0 -0.24021464101324697 0.12380420688366923 0 -0.2576501351410277 0.11274522952867172 0 -0.27297041178940507 0.09940208085463394 0 -0.2865877502316526 0.08452443857987416 0 -0.2988572963091383 0.06854325115220455 0 -0.31005974817482423 0.051726761549329446 0 -0.3204136722549855 0.03425060165935237 0 -0.3300901067291328 0.01623351590674142 0 -0.3392243701739293 -0.0022425682508920484 0 -0.34792490283028926 -0.021120448906653027 0 -0.35627979750999983 -0.04035996981112968 0 -0.3643616686419892 -0.05993294378231166 0 -0.37223135370077665 -0.07981969902924518 0 -0.37994079999582153 -0.10000668779326045 0 -0.38753538572466395 -0.12048482354979448 0 -0.3950558528659873 -0.14124834257904015 0 -0.40253998233407806 -0.16229406395009804 0 -0.4100241118021686 -0.18362097229842436 0 -0.4175445789434917 -0.20523008298856257 0 -0.4251391646723339 -0.22712457695141242 0 -0.4328486109673787 -0.24931021790678098 0 -0.44071829602616597 -0.27179609237923164 0 -0.448800167158155 -0.2945957481274337 0 -0.4571550618378659 -0.31772885694234093 0 -0.4658555944942256 -0.34122360600596363 0 -0.47498985793902215 -0.36512015156771394 0 -0.48466629241316955 -0.38947569553448735 0 -0.495020216493331 -0.41437216536389476 0 -0.5062226683590166 -0.43992830548040457 0 -0.5184922144365023 -0.4663197477721199 0 -0.53210955287875 -0.4938147352167454 0 -0.5474298295271276 -0.5228442162620927 0 -0.5648653236549087 -0.5541578686264808 0 -0.5846967453147626 -0.5892551509037955 0 -0.6061178655512601 -0.6317422446975663 0 -0.6223808445854108 -0.6936971462390582 0 -0.6208054981090473 -0.8084450615916002 0 -0.2233902673360913 0.07520233224196218 0 -0.22902590161172476 0.10823150484329752 0 -0.2290189638795952 0.1296112571833217 0 -0.234861626795615 0.13250458240466575 0 -0.24449239072003837 0.12640986247151317 0 -0.2553400995235187 0.11573967169055954 0 -0.2662519523378416 0.10245240381208726 0 -0.27678734759640555 0.08750173814531997 0 -0.2868140119188314 0.07140406143020184 0 -0.29632510947415464 0.054463624561343245 0 -0.30536242699660615 0.03687093557818944 0 -0.3139838142897865 0.01875034418003354 0 -0.32224944657169685 0.00018526405718517365 0 -0.3302162635182524 -0.01876741183801027 0 -0.3379360459439458 -0.03806855015067571 0 -0.34545512406196144 -0.05769118843980494 0 -0.3528148077130017 -0.0776168380033508 0 -0.3600521199512157 -0.09783297849178964 0 -0.36720064232433824 -0.11833134388211483 0 -0.37429138761418224 -0.13910676284828027 0 -0.3813536674743856 -0.16015641119236163 0 -0.38841594733458923 -0.18147939256766446 0 -0.3955066926244331 -0.20307660332088295 0 -0.40265521499755536 -0.22495086764994165 0 -0.4098925272357691 -0.24710735688088672 0 -0.417252210886809 -0.2695543370367249 0 -0.424771289004825 -0.2923043284669797 0 -0.43249107143051824 -0.3153758198736981 0 -0.44045788837707395 -0.33879577369788644 0 -0.44872352065898397 -0.362603323294422 0 -0.4573449079521642 -0.38685536161565043 0 -0.4663822254746155 -0.41163530235188106 0 -0.4758933230299386 -0.4370674952024074 0 -0.4859199873523642 -0.4633424482066741 0 -0.4964553826109282 -0.4907644122592917 0 -0.5073672354252511 -0.5198497741002047 0 -0.5182149442287313 -0.5515522130386367 0 -0.527845708153154 -0.5878301228248707 0 -0.533688371069173 -0.6330960777656023 0 -0.5336814333370433 -0.6968484598250144 0 -0.5393170676126775 -0.7722502621457367 0 -0.24049977966974098 0.10060620683781475 0 -0.24418887598998285 0.1144232831333098 0 -0.2448721417169577 0.12688108275065654 0 -0.24557060369833347 0.13048919355522245 0 -0.24895174484209728 0.12593604859889504 0 -0.2545082235513617 0.11635947482797585 0 -0.2613040965187566 0.10372207553632365 0 -0.268689568670017 0.08913658132958209 0 -0.276287513701456 0.07323659598277554 0 -0.28389596603310685 0.05639786665911316 0 -0.2914142607318993 0.0388525009739358 0 -0.298798406901964 0.020748912963412983 0 -0.30603558541162146 0.002184489873778851 0 -0.31312979474155034 -0.01677572306553381 0 -0.320093796930584 -0.03608783138217856 0 -0.3269446218854736 -0.05572210502857735 0 -0.33370109972894796 -0.07565846572113409 0 -0.34038256242087944 -0.09588349892685748 0 -0.34700822612719356 -0.11638845144147036 0 -0.35359697133455825 -0.1371678996766069 0 -0.3601673526146936 -0.15821890234111438 0 -0.36673773389482867 -0.1795405293959911 0 -0.3733264791021932 -0.20113371088023857 0 -0.3799521428085071 -0.2230013880850095 0 -0.38663360550043835 -0.24514898459867013 0 -0.39339008334391296 -0.26758525362549723 0 -0.4002409082988026 -0.29032360969848237 0 -0.40720491048783614 -0.3133841311012216 0 -0.4142991198177649 -0.33679654788129276 0 -0.4215362983274221 -0.3606047545110428 0 -0.4289204444974866 -0.38487379621990425 0 -0.4364387391962785 -0.40970106025411135 0 -0.44404719152792926 -0.4352349606498338 0 -0.4516451365593679 -0.46170760502241215 0 -0.45903060871062795 -0.48949474053505543 0 -0.46582648167802293 -0.5192299709627883 0 -0.4713829603872868 -0.5520260269112547 0 -0.4747641015310502 -0.5898455116743138 0 -0.47546256351242555 -0.6358262521982664 0 -0.4761458292394004 -0.6906566815349998 0 -0.47983492555964297 -0.7468463875498804 0 -0.24456882657441364 0.11897180862603149 0 -0.2480139556208278 0.12261434624836598 0 -0.2489731268250674 0.12753218461891422 0 -0.24905706297996302 0.1285140253138154 0 -0.2499327016152002 0.12419570164187524 0 -0.25234698771466924 0.1154352983912826 0 -0.256130711212529 0.10355483809913814 0 -0.26089269242623386 0.08954043725616898 0 -0.26628660724510245 0.07404432109288868 0 -0.2720624549119252 0.05748489905475149 0 -0.27805405799030297 0.04013168185062836 0 -0.28415579036432975 0.022160543794817758 0 -0.29030287219403084 0.0036878770024421016 0 -0.29645726554642 -0.015208409926801938 0 -0.3025981836583363 -0.03447578194537334 0 -0.3087158667175766 -0.0540787177622508 0 -0.31480754547747003 -0.07399326475616558 0 -0.3208748368575301 -0.09420343246220891 0 -0.32692206611562885 -0.1146987857163514 0 -0.3329551814721321 -0.1354728536252587 0 -0.3389810377550013 -0.15652212334779086 0 -0.3450068940378704 -0.17784548334464287 0 -0.35104000939437346 -0.19944404515511965 0 -0.35708723865247183 -0.22132132162036108 0 -0.3631545300325319 -0.24348378363370154 0 -0.36924620879242553 -0.26594186635917055 0 -0.37536389185166597 -0.28871156026167716 0 -0.3815048099635823 -0.31181681796248983 0 -0.38765920331597126 -0.3352931607526296 0 -0.3938062851456719 -0.3591931236796381 0 -0.3999080175196984 -0.38359461534321215 0 -0.4058996205980758 -0.4086140278584732 0 -0.41167546826489826 -0.4344272355397207 0 -0.4170693830837668 -0.4613037490958254 0 -0.4218313642974711 -0.4896619779722409 0 -0.4256150877953306 -0.5201541473994813 0 -0.4280293738947993 -0.5537663738682744 0 -0.42890501253003604 -0.5918206799157204 0 -0.4289889486849314 -0.6351751503300076 0 -0.42994811988917114 -0.6824656184199416 0 -0.43339324893558584 -0.7284807857616609 0 -0.24212792554925078 0.1333119553974516 0 -0.24509355936729604 0.1308030752927967 0 -0.24635980747459435 0.13012918798025655 0 -0.24652731666224578 0.12794478302348797 0 -0.24668390083585293 0.12260513283030403 0 -0.2475887561448935 0.1139606207250423 0 -0.24951121081556366 0.10255771747223666 0 -0.2523806034172314 0.08906155684388449 0 -0.25600953903851775 0.07401650002618242 0 -0.26020500609591557 0.057819704754748284 0 -0.26480651845898995 0.04074847892226287 0 -0.26969202451922397 0.022993633515067863 0 -0.27477277770145186 0.004686023648954756 0 -0.27998587492896954 -0.014084557984748102 0 -0.28528746286630496 -0.033256445773551975 0 -0.2906473505001771 -0.052787335989992905 0 -0.2960449776159675 -0.07264834441160517 0 -0.30146647233279855 -0.09281996694230525 0 -0.30690251594936613 -0.11328933981123893 0 -0.3123467765838263 -0.13404841097365236 0 -0.3177947228953091 -0.15509277751613307 0 -0.3232426692067918 -0.17642104069303657 0 -0.3286869298412519 -0.1980345992500072 0 -0.3341229734578193 -0.2199378561004576 0 -0.3395444681746502 -0.24213886328914108 0 -0.34494209529044073 -0.2646504845869127 0 -0.3503019829243129 -0.2874922240898559 0 -0.35560357086164823 -0.310692966020436 0 -0.36081666808916574 -0.334295014106117 0 -0.3658974212713933 -0.3583600339593883 0 -0.37078292733162704 -0.38297781827157773 0 -0.3753844396947011 -0.4082792221584765 0 -0.3795799067520984 -0.4344550566064271 0 -0.38320884237338426 -0.4617826295081099 0 -0.38607823497505184 -0.49065909859914236 0 -0.3880006896457216 -0.5216288250657216 0 -0.38890554495476176 -0.5553569426798455 0 -0.3890621291283685 -0.5923899222060474 0 -0.3892296383160202 -0.632578146968664 0 -0.3904958864233187 -0.6742768893755091 0 -0.3934615202413645 -0.7141406389902388 0 -0.23540125494669986 0.14499248829580338 0 -0.23799557867581908 0.13840034190528347 0 -0.23935576285657695 0.1336523190144573 0 -0.23973734866120294 0.12855741930809672 0 -0.2397664427993136 0.12171113502955706 0 -0.24004944317790017 0.11259157649652071 0 -0.2409491512172137 0.10127447947556796 0 -0.2425856218594452 0.0880924059047039 0 -0.2449241699860375 0.07341866255460355 0 -0.24786412314992504 0.0575749478139269 0 -0.25129062263975 0.04081150554966396 0 -0.25509813027122785 0.023313840283570655 0 -0.2591982522910827 0.00521621049222592 0 -0.26352031221004796 -0.013385454831356627 0 -0.26800912260226895 -0.032423161795521065 0 -0.2726220262724455 -0.051849048090919926 0 -0.2773260576541221 -0.07162971119601616 0 -0.28209550440997877 -0.09174216128823115 0 -0.28690990234170793 -0.1121709814321779 0 -0.29175240104788286 -0.13290638736362625 0 -0.29660840803561683 -0.15394297464840218 0 -0.30146441502335086 -0.17527901708301044 0 -0.30630691372952573 -0.1969162408709461 0 -0.31112131166125495 -0.21886005044638346 0 -0.3158907584171117 -0.24112023007355207 0 -0.32059478979878836 -0.26371219668783974 0 -0.32520769346896483 -0.2866589401118251 0 -0.3296965038611857 -0.30999386286704467 0 -0.3340185637801506 -0.33376482726284606 0 -0.33811868580000504 -0.35803982719088556 0 -0.3419261934314828 -0.38291479164417674 0 -0.3453526929213072 -0.408523979099298 0 -0.3482926460851944 -0.435052894078006 0 -0.3506311942117864 -0.4627517804472905 0 -0.35226766485401756 -0.491942336595811 0 -0.3531673728933307 -0.5229978692942431 0 -0.3534503732719169 -0.556250940480592 0 -0.3534794674100275 -0.5917772859214377 0 -0.35386105321465355 -0.6290550159344619 0 -0.3552212373954117 -0.6666796227630211 0 -0.3578155611245312 -0.7024601060918853 0 -0.2257006976231049 0.15478250443416883 0 -0.22797284005455098 0.1452851023323495 0 -0.22933081436385327 0.13750440385127466 0 -0.22986952865702434 0.1299523779179949 0 -0.2299573597687608 0.12151865355262209 0 -0.23002454709263337 0.11160695923530307 0 -0.2304080627591643 0.10005196961282577 0 -0.23129652030099668 0.08694932481339064 0 -0.23275131900121684 0.07250474943580562 0 -0.23475257180367923 0.05694178558777999 0 -0.23724030120441483 0.040459398901515994 0 -0.24014102818017632 0.023219274646669157 0 -0.2433820406570844 0.005346543682019905 0 -0.24689775820023918 -0.013064690906462033 0 -0.2506317154033979 -0.03194497102239397 0 -0.25453637409147 -0.05124375727164837 0 -0.2585719962899229 -0.07092478577763425 0 -0.26270520666298164 -0.09096250198091044 0 -0.26690753457862193 -0.1113394263601022 0 -0.2711540469855694 -0.13204428871308646 0 -0.27542209317592475 -0.15307079360822806 0 -0.27969013936628 -0.1744169184324706 0 -0.2839366517732276 -0.19608468579887028 0 -0.28813897968886787 -0.21808039113906263 0 -0.2922721900619267 -0.2404153046551702 0 -0.29630781226037967 -0.2631069058685682 0 -0.3002124709484518 -0.28618074933869797 0 -0.30394642815161055 -0.30967309894215006 0 -0.3074621456947651 -0.33363449407305235 0 -0.31070315817167277 -0.35813439282778714 0 -0.31360388514743387 -0.3832668982923248 0 -0.31609161454816903 -0.4091571413254451 0 -0.31809286735063097 -0.43596680719680386 0 -0.3195476660508509 -0.46389486153860354 0 -0.32043612359268303 -0.4931648464585531 0 -0.3208196392592138 -0.5239824865554603 0 -0.3208868265830859 -0.5564434219575264 0 -0.3209746576948223 -0.5903823273115386 0 -0.32151337198799346 -0.6252029310976436 0 -0.32287134629729586 -0.6597948623359535 0 -0.32514348872874244 -0.6926700899535184 0 -0.21379309344637182 0.16313209639231444 0 -0.21579001360446703 0.15146631183651948 0 -0.2170897175429562 0.14137113784907743 0 -0.21771985904093688 0.13179519780870572 0 -0.21789832721326566 0.12187567548144002 0 -0.21792235419130704 0.11105115941766756 0 -0.21806580501892384 0.09905475095920141 0 -0.21852324764595848 0.08583647204538523 0 -0.2194000676028308 0.07147188841670822 0 -0.22072974001461157 0.05609019886064561 0 -0.22249847963760958 0.039830128457444484 0 -0.22466658812821716 0.02281806639080464 0 -0.22718320844701415 0.005160015787947179 0 -0.22999517223868804 -0.01305932784099837 0 -0.23305165227843413 -0.03177439870170004 0 -0.23630618097388303 -0.050935609238142866 0 -0.2397171479482325 -0.07050622225151511 0 -0.2432474817197055 -0.09045965140496529 0 -0.24686392845028182 -0.11077731057942043 0 -0.2505361534210484 -0.13144701089160263 0 -0.2542357783162327 -0.1524618631713594 0 -0.25793540321141695 -0.17381964061098684 0 -0.2616076281821836 -0.19552257001818843 0 -0.26522407491275984 -0.2175775405631174 0 -0.26875440868423306 -0.23999674112905103 0 -0.27216537565858256 -0.2627987578350628 0 -0.27541990435403135 -0.2860101770180041 0 -0.2784763843937775 -0.3096677358766864 0 -0.28128834818545123 -0.33382102196712504 0 -0.28380496850424786 -0.35853560108365196 0 -0.2859730769948553 -0.38389616873639637 0 -0.28774181661785286 -0.41000872805257954 0 -0.28907148902963314 -0.4369996682159012 0 -0.28994830898650525 -0.4650077143066087 0 -0.2904057516135396 -0.49416206511217714 0 -0.2905492024411561 -0.5245382863730956 0 -0.2905732294191974 -0.556086400028708 0 -0.2907516975915259 -0.5885395074208271 0 -0.2913818390895065 -0.6213361970998402 0 -0.2926815430279958 -0.6536136528317824 0 -0.2946784631860914 -0.6843204979953715 0 -0.2001858276969342 0.17032780824599356 0 -0.20194213268641525 0.156987147126722 0 -0.20315511311831816 0.14508556097073277 0 -0.20382304838906126 0.1338516185986479 0 -0.20407722194781208 0.12261079656343149 0 -0.2041212598054596 0.11086870151373462 0 -0.20416639784105903 0.09832866040715224 0 -0.20438614621798634 0.0848608666933782 0 -0.2048973383573896 0.07045109603369072 0 -0.20576149059252025 0.05515129545714332 0 -0.20699650950971882 0.03904262570055825 0 -0.208590663660679 0.02221235844084878 0 -0.2105145874805293 0.004741612778352667 0 -0.2127299977633473 -0.01329987825437142 0 -0.21519533974248609 -0.03185503108429812 0 -0.2178690829824651 -0.05087871332979333 0 -0.22071139983482727 -0.07033625999229877 0 -0.2236848043559295 -0.09020183414323683 0 -0.2267541563692375 -0.11045694110917396 0 -0.2298862946431685 -0.13108923091945893 0 -0.23304946345654068 -0.15209163693333028 0 -0.23621263226991296 -0.17346186063884306 0 -0.23934477054384412 -0.19520220054794196 0 -0.24241412255715203 -0.21731972330138888 0 -0.24538752707825429 -0.23982677886983467 0 -0.24822984393061653 -0.26274186192671334 0 -0.25090358717059547 -0.2860908094006022 0 -0.25336892914973413 -0.3099082862900595 0 -0.2555843394325519 -0.3342394249767197 0 -0.25750826325240195 -0.3591413090336079 0 -0.2591024174033619 -0.3846836714932826 0 -0.26033743632056006 -0.4109476314560817 0 -0.26120158855569037 -0.4380204605989187 0 -0.2617127806950932 -0.46598331965861556 0 -0.2619325290720203 -0.4948881556642261 0 -0.2619776671076196 -0.5247207442770283 0 -0.2620217049652669 -0.5553512789467161 0 -0.2622758785240176 -0.5864830866308843 0 -0.26294381379476073 -0.6176217739781841 0 -0.26415679422666377 -0.6480928175415789 0 -0.26591309921614514 -0.6771247861416911 0 -0.18523303935281912 0.17656079986675222 0 -0.18677522997557505 0.16189498881663045 0 -0.1878867628024695 0.14855825493813588 0 -0.18855415306141066 0.13596437000441378 0 -0.1888576333719354 0.12357783986414582 0 -0.18893725940144848 0.11097319145216292 0 -0.18895212007325646 0.09785775320152007 0 -0.18904694484935036 0.08406294136963645 0 -0.18933284976811626 0.0695174261756057 0 -0.189881695554451 0.05421553452253498 0 -0.19072957447892464 0.03818956337418978 0 -0.19188451017623617 0.021489447785945616 0 -0.19333482495369012 0.004169719112984908 0 -0.1950563334443519 -0.013717861058920082 0 -0.1970177585669135 -0.03212784377240935 0 -0.19918443611639372 -0.05102233068262905 0 -0.20152063290149652 -0.07037096688253364 0 -0.2039908429481788 -0.09015035965535188 0 -0.20656037547565212 -0.11034331872245039 0 -0.20919547512438497 -0.13093813720180678 0 -0.21186314859684888 -0.15192802743309824 0 -0.21453082206931282 -0.17331076692119088 0 -0.21716592171804555 -0.1950885781612183 0 -0.21973545424551877 -0.21726824881350396 0 -0.2222056642922012 -0.23986148576006952 0 -0.22454186107730398 -0.2628854792795489 0 -0.22670853862678414 -0.2863636220887136 0 -0.22866996374934545 -0.3103262690946083 0 -0.2303914722400071 -0.3348113186420876 0 -0.23184178701746092 -0.3598642196885111 0 -0.23299672271477218 -0.38553673381965115 0 -0.23384460163924564 -0.41188339239069016 0 -0.23439344742557988 -0.43895413045700377 0 -0.23467935234434542 -0.46678124498235735 0 -0.23477417712043894 -0.4953590628698582 0 -0.2347890377922467 -0.5246162543385997 0 -0.23486866382175986 -0.5543842356460014 0 -0.2351721441322845 -0.5843703352251179 0 -0.2358395343912256 -0.6141490800107802 0 -0.23695106721812018 -0.6431849758516693 0 -0.23849325784087633 -0.6708917945209316 0 -0.169195722304052 0.1819638359155083 0 -0.17054393293433473 0.16623255438529086 0 -0.17154680541706585 0.15174097995090519 0 -0.17218705759286262 0.13802892975235684 0 -0.17251432028668442 0.12466289529999987 0 -0.17262564885363524 0.11127807947278842 0 -0.17263969245176558 0.09759967560517298 0 -0.17267296146552175 0.08344403452246839 0 -0.17282341202596477 0.0687058716484115 0 -0.17316256306352323 0.05333913345574198 0 -0.1737345501892838 0.0373376058739681 0 -0.17455943883086433 0.02071870876634277 0 -0.17563834710895504 0.0035116073300282837 0 -0.17695871111299996 -0.014250646861134454 0 -0.1784988216553725 -0.032535827634062923 0 -0.1802313295833738 -0.0