# vtk DataFile Version 4.2
Tri2D3N
ASCII

DATASET UNSTRUCTURED_GRID
POINTS 1681 double
0 0 0 25 0 0 50 0 0 75 0 0 100 0 0 125 0 0 150 0 0 175 0 0 200 0 0 225 0 0 250 0 0 275 0 0 300 0 0 325 0 0 350 0 0 375 0 0 400 0 0 425 0 0 450 0 0 475 0 0 500 0 0 525 0 0 550 0 0 575 0 0 600 0 0 625 0 0 650 0 0 675 0 0 700 0 0 725 0 0 750 0 0 775 0 0 800 0 0 825 0 0 850 0 0 875 0 0 900 0 0 925 0 0 950 0 0 975 0 0 1000 0 0 0 25 0 25 25 0 50 25 0 75 25 0 100 25 0 125 25 0 150 25 0 175 25 0 200 25 0 225 25 0 250 25 0 275 25 0 300 25 0 325 25 0 350 25 0 375 25 0 400 25 0 425 25 0 450 25 0 475 25 0 500 25 0 525 25 0 550 25 0 575 25 0 600 25 0 625 25 0 650 25 0 675 25 0 700 25 0 725 25 0 750 25 0 775 25 0 800 25 0 825 25 0 850 25 0 875 25 0 900 25 0 925 25 0 950 25 0 975 25 0 1000 25 0 0 50 0 25 50 0 50 50 0 75 50 0 100 50 0 125 50 0 150 50 0 175 50 0 200 50 0 225 50 0 250 50 0 275 50 0 300 50 0 325 50 0 350 50 0 375 50 0 400 50 0 425 50 0 450 50 0 475 50 0 500 50 0 525 50 0 550 50 0 575 50 0 600 50 0 625 50 0 650 50 0 675 50 0 700 50 0 725 50 0 750 50 0 775 50 0 800 50 0 825 50 0 850 50 0 875 50 0 900 50 0 925 50 0 950 50 0 975 50 0 1000 50 0 0 75 0 25 75 0 50 75 0 75 75 0 100 75 0 125 75 0 150 75 0 175 75 0 200 75 0 225 75 0 250 75 0 275 75 0 300 75 0 325 75 0 350 75 0 375 75 0 400 75 0 425 75 0 450 75 0 475 75 0 500 75 0 525 75 0 550 75 0 575 75 0 600 75 0 625 75 0 650 75 0 675 75 0 700 75 0 725 75 0 750 75 0 775 75 0 800 75 0 825 75 0 850 75 0 875 75 0 900 75 0 925 75 0 950 75 0 975 75 0 1000 75 0 0 100 0 25 100 0 50 100 0 75 100 0 100 100 0 125 100 0 150 100 0 175 100 0 200 100 0 225 100 0 250 100 0 275 100 0 300 100 0 325 100 0 350 100 0 375 100 0 400 100 0 425 100 0 450 100 0 475 100 0 500 100 0 525 100 0 550 100 0 575 100 0 600 100 0 625 100 0 650 100 0 675 100 0 700 100 0 725 100 0 750 100 0 775 100 0 800 100 0 825 100 0 850 100 0 875 100 0 900 100 0 925 100 0 950 100 0 975 100 0 1000 100 0 0 125 0 25 125 0 50 125 0 75 125 0 100 125 0 125 125 0 150 125 0 175 125 0 200 125 0 225 125 0 250 125 0 275 125 0 300 125 0 325 125 0 350 125 0 375 125 0 400 125 0 425 125 0 450 125 0 475 125 0 500 125 0 525 125 0 550 125 0 575 125 0 600 125 0 625 125 0 650 125 0 675 125 0 700 125 0 725 125 0 750 125 0 775 125 0 800 125 0 825 125 0 850 125 0 875 125 0 900 125 0 925 125 0 950 125 0 975 125 0 1000 125 0 0 150 0 25 150 0 50 150 0 75 150 0 100 150 0 125 150 0 150 150 0 175 150 0 200 150 0 225 150 0 250 150 0 275 150 0 300 150 0 325 150 0 350 150 0 375 150 0 400 150 0 425 150 0 450 150 0 475 150 0 500 150 0 525 150 0 550 150 0 575 150 0 600 150 0 625 150 0 650 150 0 675 150 0 700 150 0 725 150 0 750 150 0 775 150 0 800 150 0 825 150 0 850 150 0 875 150 0 900 150 0 925 150 0 950 150 0 975 150 0 1000 150 0 0 175 0 25 175 0 50 175 0 75 175 0 100 175 0 125 175 0 150 175 0 175 175 0 200 175 0 225 175 0 250 175 0 275 175 0 300 175 0 325 175 0 350 175 0 375 175 0 400 175 0 425 175 0 450 175 0 475 175 0 500 175 0 525 175 0 550 175 0 575 175 0 600 175 0 625 175 0 650 175 0 675 175 0 700 175 0 725 175 0 750 175 0 775 175 0 800 175 0 825 175 0 850 175 0 875 175 0 900 175 0 925 175 0 950 175 0 975 175 0 1000 175 0 0 200 0 25 200 0 50 200 0 75 200 0 100 200 0 125 200 0 150 200 0 175 200 0 200 200 0 225 200 0 250 200 0 275 200 0 300 200 0 325 200 0 350 200 0 375 200 0 400 200 0 425 200 0 450 200 0 475 200 0 500 200 0 525 200 0 550 200 0 575 200 0 600 200 0 625 200 0 650 200 0 675 200 0 700 200 0 725 200 0 750 200 0 775 200 0 800 200 0 825 200 0 850 200 0 875 200 0 900 200 0 925 200 0 950 200 0 975 200 0 1000 200 0 0 225 0 25 225 0 50 225 0 75 225 0 100 225 0 125 225 0 150 225 0 175 225 0 200 225 0 225 225 0 250 225 0 275 225 0 300 225 0 325 225 0 350 225 0 375 225 0 400 225 0 425 225 0 450 225 0 475 225 0 500 225 0 525 225 0 550 225 0 575 225 0 600 225 0 625 225 0 650 225 0 675 225 0 700 225 0 725 225 0 750 225 0 775 225 0 800 225 0 825 225 0 850 225 0 875 225 0 900 225 0 925 225 0 950 225 0 975 225 0 1000 225 0 0 250 0 25 250 0 50 250 0 75 250 0 100 250 0 125 250 0 150 250 0 175 250 0 200 250 0 225 250 0 250 250 0 275 250 0 300 250 0 325 250 0 350 250 0 375 250 0 400 250 0 425 250 0 450 250 0 475 250 0 500 250 0 525 250 0 550 250 0 575 250 0 600 250 0 625 250 0 650 250 0 675 250 0 700 250 0 725 250 0 750 250 0 775 250 0 800 250 0 825 250 0 850 250 0 875 250 0 900 250 0 925 250 0 950 250 0 975 250 0 1000 250 0 0 275 0 25 275 0 50 275 0 75 275 0 100 275 0 125 275 0 150 275 0 175 275 0 200 275 0 225 275 0 250 275 0 275 275 0 300 275 0 325 275 0 350 275 0 375 275 0 400 275 0 425 275 0 450 275 0 475 275 0 500 275 0 525 275 0 550 275 0 575 275 0 600 275 0 625 275 0 650 275 0 675 275 0 700 275 0 725 275 0 750 275 0 775 275 0 800 275 0 825 275 0 850 275 0 875 275 0 900 275 0 925 275 0 950 275 0 975 275 0 1000 275 0 0 300 0 25 300 0 50 300 0 75 300 0 100 300 0 125 300 0 150 300 0 175 300 0 200 300 0 225 300 0 250 300 0 275 300 0 300 300 0 325 300 0 350 300 0 375 300 0 400 300 0 425 300 0 450 300 0 475 300 0 500 300 0 525 300 0 550 300 0 575 300 0 600 300 0 625 300 0 650 300 0 675 300 0 700 300 0 725 300 0 750 300 0 775 300 0 800 300 0 825 300 0 850 300 0 875 300 0 900 300 0 925 300 0 950 300 0 975 300 0 1000 300 0 0 325 0 25 325 0 50 325 0 75 325 0 100 325 0 125 325 0 150 325 0 175 325 0 200 325 0 225 325 0 250 325 0 275 325 0 300 325 0 325 325 0 350 325 0 375 325 0 400 325 0 425 325 0 450 325 0 475 325 0 500 325 0 525 325 0 550 325 0 575 325 0 600 325 0 625 325 0 650 325 0 675 325 0 700 325 0 725 325 0 750 325 0 775 325 0 800 325 0 825 325 0 850 325 0 875 325 0 900 325 0 925 325 0 950 325 0 975 325 0 1000 325 0 0 350 0 25 350 0 50 350 0 75 350 0 100 350 0 125 350 0 150 350 0 175 350 0 200 350 0 225 350 0 250 350 0 275 350 0 300 350 0 325 350 0 350 350 0 375 350 0 400 350 0 425 350 0 450 350 0 475 350 0 500 350 0 525 350 0 550 350 0 575 350 0 600 350 0 625 350 0 650 350 0 675 350 0 700 350 0 725 350 0 750 350 0 775 350 0 800 350 0 825 350 0 850 350 0 875 350 0 900 350 0 925 350 0 950 350 0 975 350 0 1000 350 0 0 375 0 25 375 0 50 375 0 75 375 0 100 375 0 125 375 0 150 375 0 175 375 0 200 375 0 225 375 0 250 375 0 275 375 0 300 375 0 325 375 0 350 375 0 375 375 0 400 375 0 425 375 0 450 375 0 475 375 0 500 375 0 525 375 0 550 375 0 575 375 0 600 375 0 625 375 0 650 375 0 675 375 0 700 375 0 725 375 0 750 375 0 775 375 0 800 375 0 825 375 0 850 375 0 875 375 0 900 375 0 925 375 0 950 375 0 975 375 0 1000 375 0 0 400 0 25 400 0 50 400 0 75 400 0 100 400 0 125 400 0 150 400 0 175 400 0 200 400 0 225 400 0 250 400 0 275 400 0 300 400 0 325 400 0 350 400 0 375 400 0 400 400 0 425 400 0 450 400 0 475 400 0 500 400 0 525 400 0 550 400 0 575 400 0 600 400 0 625 400 0 650 400 0 675 400 0 700 400 0 725 400 0 750 400 0 775 400 0 800 400 0 825 400 0 850 400 0 875 400 0 900 400 0 925 400 0 950 400 0 975 400 0 1000 400 0 0 425 0 25 425 0 50 425 0 75 425 0 100 425 0 125 425 0 150 425 0 175 425 0 200 425 0 225 425 0 250 425 0 275 425 0 300 425 0 325 425 0 350 425 0 375 425 0 400 425 0 425 425 0 450 425 0 475 425 0 500 425 0 525 425 0 550 425 0 575 425 0 600 425 0 625 425 0 650 425 0 675 425 0 700 425 0 725 425 0 750 425 0 775 425 0 800 425 0 825 425 0 850 425 0 875 425 0 900 425 0 925 425 0 950 425 0 975 425 0 1000 425 0 0 450 0 25 450 0 50 450 0 75 450 0 100 450 0 125 450 0 150 450 0 175 450 0 200 450 0 225 450 0 250 450 0 275 450 0 300 450 0 325 450 0 350 450 0 375 450 0 400 450 0 425 450 0 450 450 0 475 450 0 500 450 0 525 450 0 550 450 0 575 450 0 600 450 0 625 450 0 650 450 0 675 450 0 700 450 0 725 450 0 750 450 0 775 450 0 800 450 0 825 450 0 850 450 0 875 450 0 900 450 0 925 450 0 950 450 0 975 450 0 1000 450 0 0 475 0 25 475 0 50 475 0 75 475 0 100 475 0 125 475 0 150 475 0 175 475 0 200 475 0 225 475 0 250 475 0 275 475 0 300 475 0 325 475 0 350 475 0 375 475 0 400 475 0 425 475 0 450 475 0 475 475 0 500 475 0 525 475 0 550 475 0 575 475 0 600 475 0 625 475 0 650 475 0 675 475 0 700 475 0 725 475 0 750 475 0 775 475 0 800 475 0 825 475 0 850 475 0 875 475 0 900 475 0 925 475 0 950 475 0 975 475 0 1000 475 0 0 500 0 25 500 0 50 500 0 75 500 0 100 500 0 125 500 0 150 500 0 175 500 0 200 500 0 225 500 0 250 500 0 275 500 0 300 500 0 325 500 0 350 500 0 375 500 0 400 500 0 425 500 0 450 500 0 475 500 0 500 500 0 525 500 0 550 500 0 575 500 0 600 500 0 625 500 0 650 500 0 675 500 0 700 500 0 725 500 0 750 500 0 775 500 0 800 500 0 825 500 0 850 500 0 875 500 0 900 500 0 925 500 0 950 500 0 975 500 0 1000 500 0 0 525 0 25 525 0 50 525 0 75 525 0 100 525 0 125 525 0 150 525 0 175 525 0 200 525 0 225 525 0 250 525 0 275 525 0 300 525 0 325 525 0 350 525 0 375 525 0 400 525 0 425 525 0 450 525 0 475 525 0 500 525 0 525 525 0 550 525 0 575 525 0 600 525 0 625 525 0 650 525 0 675 525 0 700 525 0 725 525 0 750 525 0 775 525 0 800 525 0 825 525 0 850 525 0 875 525 0 900 525 0 925 525 0 950 525 0 975 525 0 1000 525 0 0 550 0 25 550 0 50 550 0 75 550 0 100 550 0 125 550 0 150 550 0 175 550 0 200 550 0 225 550 0 250 550 0 275 550 0 300 550 0 325 550 0 350 550 0 375 550 0 400 550 0 425 550 0 450 550 0 475 550 0 500 550 0 525 550 0 550 550 0 575 550 0 600 550 0 625 550 0 650 550 0 675 550 0 700 550 0 725 550 0 750 550 0 775 550 0 800 550 0 825 550 0 850 550 0 875 550 0 900 550 0 925 550 0 950 550 0 975 550 0 1000 550 0 0 575 0 25 575 0 50 575 0 75 575 0 100 575 0 125 575 0 150 575 0 175 575 0 200 575 0 225 575 0 250 575 0 275 575 0 300 575 0 325 575 0 350 575 0 375 575 0 400 575 0 425 575 0 450 575 0 475 575 0 500 575 0 525 575 0 550 575 0 575 575 0 600 575 0 625 575 0 650 575 0 675 575 0 700 575 0 725 575 0 750 575 0 775 575 0 800 575 0 825 575 0 850 575 0 875 575 0 900 575 0 925 575 0 950 575 0 975 575 0 1000 575 0 0 600 0 25 600 0 50 600 0 75 600 0 100 600 0 125 600 0 150 600 0 175 600 0 200 600 0 225 600 0 250 600 0 275 600 0 300 600 0 325 600 0 350 600 0 375 600 0 400 600 0 425 600 0 450 600 0 475 600 0 500 600 0 525 600 0 550 600 0 575 600 0 600 600 0 625 600 0 650 600 0 675 600 0 700 600 0 725 600 0 750 600 0 775 600 0 800 600 0 825 600 0 850 600 0 875 600 0 900 600 0 925 600 0
[...]
POINT_DATA 1681

VECTORS displacement double
0 0 0 -8.194269756100773 8.51020059386688 0 -13.373739668870948 10.957442319823711 0 -17.099098142038798 11.505392675895944 0 -19.932597560686364 11.212167960576979 0 -22.185990480930574 10.474067975206086 0 -24.047261883683912 9.469908879053172 0 -25.633953437362432 8.290963587067303 0 -27.022179572694487 6.988551016824754 0 -28.26308387066726 5.593815697022611 0 -29.392309538459404 4.126776033002696 0 -30.43555280710385 2.6008344914979067 0 -31.41190512294025 1.0252125613098921 0 -32.335929559372346 -0.5936365368962627 0 -33.21899770570053 -2.2511564266202817 0 -34.070183789585016 -3.944123154902692 0 -34.89688679286897 -5.670266312236696 0 -35.70528142665106 -7.428008981340481 0 -36.50065946487328 -9.216288030700689 0 -37.287700394586636 -11.034431751069826 0 -38.07069727760237 -12.882080898427327 0 -38.85375617673464 -14.759144929088839 0 -39.640983358372054 -16.665789191702252 0 -40.43667264753576 -18.60245199942071 0 -41.24550531600804 -20.569893476652293 0 -42.072776725392885 -22.569281428822386 0 -42.924668081531586 -24.602323919239776 0 -43.808589156963954 -26.67146483237394 0 -44.733630771930876 -28.780169355779016 0 -45.71118801137424 -30.93334462365569 0 -46.75585359860547 -33.13797390421992 0 -47.88674836065452 -35.4041055211362 0 -49.12957554187693 -37.746461927298434 0 -50.519898839992585 -40.187190011666694 0 -52.1085180648061 -42.76081969865692 0 -53.970444870388114 -45.523705277403025 0 -56.219923112774744 -48.572986063802354 0 -59.03490669021615 -52.08663053103139 0 -62.69362620016225 -56.41173061087386 0 -67.61861371981787 -62.25794044432767 0 -74.45979084969966 -70.90177271767105 0 -13.448491159580998 4.186682624847104 0 -14.90765774709102 9.38837081628979 0 -16.642650096685266 11.506087359412046 0 -18.467913966076633 12.018896250934358 0 -20.224730044715653 11.703132898167055 0 -21.844168767614033 10.931792853905177 0 -23.313226685807805 9.890221524306865 0 -24.643571361215503 8.67549527867579 0 -25.854782375546197 7.341547148667968 0 -26.96699148981666 5.920162517422205 0 -27.998199808076777 4.43109856343013 0 -28.963637691360965 2.887181146947517 0 -29.875912458660004 1.2970086252786959 0 -30.745399600154144 -0.3335298818214302 0 -31.58066264597555 -2.0003517530053636 0 -32.388829045760055 -3.700615314075893 0 -33.17590651137943 -5.432350051858067 0 -33.947044819163914 -7.194207519944183 0 -34.706753844880765 -8.985291297148033 0 -35.45908895206696 -10.805042021758828 0 -36.20781358756086 -12.653163406971524 0 -36.95654752033207 -14.529581090449145 0 -37.70890809865969 -16.434430121764382 0 -38.468651345520755 -18.36806990235887 0 -39.239819699379204 -20.331128134108976 0 -40.02690375468065 -22.324578359877677 0 -40.83502648025163 -24.349859635463186 0 -41.67016007148991 -26.409052729379706 0 -42.539387623948755 -28.50513671765007 0 -43.451223469234584 -30.642366200535367 0 -44.41600514925028 -32.82683921281131 0 -45.446360979591745 -35.067383044332416 0 -46.55772589661773 -37.37699954757551 0 -47.76879090618509 -39.77534979654667 0 -49.10154841378499 -42.29327307113473 0 -50.58005471863522 -44.98148702160625 0 -52.225765108872544 -47.92827769863146 0 -54.04441675454064 -51.29737821354224 0 -55.99273245702108 -55.413861586977944 0 -57.88904890338493 -60.987749918736185 0 -58.935200918279165 -70.20792072312146 0 -18.16892862016739 6.713491473158929 0 -18.669660499167936 9.914984627327097 0 -19.237373433343013 11.619553520821762 0 -20.00930811027825 12.130146038423112 0 -20.937891415051674 11.878338912136522 0 -21.943959866825832 11.1572839618748 0 -22.967726577528225 10.143106012299313 0 -23.97408362640725 8.938928736868895 0 -24.946043097804523 7.605563369787855 0 -25.8776780979688 6.17965487510061 0 -26.769104322291586 4.6839038749575455 0 -27.62340795368476 3.132773254073077 0 -28.444916311334747 1.5357090801576807 0 -29.23828663041642 -0.1009986742660245 0 -30.008061628958874 -1.773107500628288 0 -30.758480433113572 -3.4777388297206966 0 -31.493424711691844 -5.212942427610634 0 -32.21643417273793 -6.977411154610908 0 -32.93075632925081 -8.770291256815549 0 -33.639412358769675 -10.591056741923637 0 -34.345270006353566 -12.439429596261093 0 -35.05111930778435 -14.315335431327599 0 -35.75974936663149 -16.218889172158303 0 -36.474025510882846 -18.15040905799023 0 -37.19696633693402 -20.110460430273633 0 -37.93181949967669 -22.09993426851319 0 -38.68213335868207 -24.120170029267666 0 -39.45181801149248 -26.1731392886658 0 -40.24518233495955 -28.261718158929412 0 -41.0669205170625 -30.390096552507817 0 -41.92199672818827 -32.564409164861075 0 -42.81532994940062 -34.79374271625676 0 -43.7510945076459 -37.09180941722968 0 -44.731295519834745 -39.47984487970323 0 -45.753009832618325 -41.991825408106514 0 -46.80327149855851 -44.68417097110996 0 -47.85013601981998 -47.654193675444084 0 -48.82875971702211 -51.075432216247115 0 -49.6260669805775 -55.26429666913956 0 -50.10123996257421 -60.786615316015585 0 -50.67887281750168 -67.94940443435063 0 -20.222338786656056 8.74711922249815 0 -20.534651556100524 10.524919908983183 0 -20.749090572501466 11.693765402969328 0 -21.05372004031839 12.087185856802893 0 -21.50113109469462 11.862055345002837 0 -22.072962055798804 11.199521292701775 0 -22.730954155525673 10.238317537152136 0 -23.439543206407564 9.073046676337302 0 -24.17234235823155 7.765555994624095 0 -24.912012435811313 6.355774329318936 0 -25.648192187942207 4.869518318417518 0 -26.375333899859385 3.323615397793822 0 -27.090996199218385 1.7291468519859299 0 -27.794646307514615 0.09348022459694129 0 -28.486872504541868 -1.5784517013677852 0 -29.168888548640854 -3.2833362340928387 0 -29.84223332383591 -5.018953721964103 0 -30.50859645721517 -6.783831596939107 0 -31.16972338666388 -8.577015481504604 0 -31.82736960889082 -10.397918841298772 0 -32.48328460306115 -12.246228109840567 0 -33.13921266885043 -14.121849825603201 0 -33.79690184116223 -16.024892668273967 0 -34.4581139401324 -17.955681954617354 0 -35.12462908756887 -19.914808248985032 0 -35.798236713793955 -21.903216185270537 0 -36.48070186172858 -23.92234543463387 0 -37.17368967680972 -25.97434450583333 0 -37.878620930808445 -28.062392255160283 0 -38.59641498304055 -30.191186047506335 0 -39.32705043989648 -32.36769738135063 0 -40.06883409135734 -34.60236951260207 0 -40.81721390859123 -36.91106106033544 0 -41.56291307788427 -39.3182613270408 0 -42.28915626070186 -41.862457607853 0 -42.968010132031 -44.60500036181369 0 -43.55702082870684 -47.64399568573443 0 -44.001478675005075 -51.13249879391499 0 -44.26205856987548 -55.284330804148894 0 -44.43791701117386 -60.26086200100055 0 -44.88972940549427 -65.87070879833419 0 -21.015696998686966 10.41018300256823 0 -21.28104292420785 11.217911260462113 0 -21.40273434285511 11.857358886936895 0 -21.523480766643992 12.044575542466248 0 -21.724391685536975 11.777623288544714 0 -22.028483803099 11.140401146947513 0 -22.42729781882325 10.22394507219786 0 -22.90086004600398 9.102830731555954 0 -23.42820131811603 7.832188052971168 0 -23.991613722374883 6.4509209572042865 0 -24.577666594820553 4.9858903205528975 0 -25.176841765232812 3.4554664153953607 0 -25.782738519290138 1.872171081639241 0 -26.39126568908396 0.24453366245568645 0 -26.999968488039038 -1.4216384911327309 0 -27.607516919764436 -3.1223989167847774 0 -28.21333660018484 -4.855079593124752 0 -28.817350698724304 -6.617896821029424 0 -29.419802999968997 -8.409685331399823 0 -30.02113746607588 -10.229721555710666 0 -30.621915280154173 -12.077611252006154 0 -31.222754813482197 -13.953226386634817 0 -31.82428295427568 -15.856683059064054 0 -32.427087771264944 -17.788357610629536 0 -33.03166260266468 -19.748942895105333 0 -33.638330302337295 -21.739551949678187 0 -34.24713333070695 -23.761883063478056 0 -34.85767028982818 -25.818469961420416 0 -35.468851964795796 -27.913055691727628 0 -36.078539863673065 -30.051152147958547 0 -36.68301895226837 -32.24088374860173 0 -37.27624929542995 -34.49426937920463 0 -37.84885555863654 -36.82917415580108 0 -38.386894385781844 -39.272246897877935 0 -38.87070207033549 -41.86316761218194 0 -39.274840568449534 -44.66015634231671 0 -39.57192770142506 -47.74494903128023 0 -39.74701576352301 -51.219381830551846 0 -39.83442646043267 -55.169277438906306 0 -39.96317637466217 -59.56965014681149 0 -40.33802641956248 -64.14963520829566 0 -21.09241477896172 11.781835150869277 0 -21.336345475911024 11.932697914382011 0 -21.44260582805081 12.11445612481133 0 -21.50166368006636 12.060763016579044 0 -21.58783003157383 11.69847858422159 0 -21.74029225593132 11.045500285204298 0 -21.97058199425729 10.15004889244854 0 -22.274370000684 9.062999272403182 0 -22.64042312413969 7.827836265189359 0 -23.05590113590364 6.478514910940701 0 -23.50895641779412 5.040336623745905 0 -23.989718070354925 3.5316642374816363 0 -24.490437602765034 1.9656174891435196 0 -25.005263915991897 0.3514763745984188 0 -25.529897571642273 -1.3042438312708635 0 -26.06124311737284 -2.9970011054860146 0 -26.59710674203538 -4.723656825682002 0 -27.135950947242296 -6.482071565756117 0 -27.676702055182364 -8.270822689978914 0 -28.218600494052694 -10.089011847309738 0 -28.761082503505047 -11.936140400308464 0 -29.303682352515963 -13.812038642082738 0 -29.84594495526818 -15.716840858663668 0 -30.38733923929138 -17.651003536049004 0 -30.927162457951454 -19.615368971961626 0 -31.464424720916952 -21.61128194914479 0 -31.997701355155804 -23.64077377415183 0 -32.52493855830313 -25.70683685955648 0 -33.04319598116906 -27.81382525599496 0 -33.54831051158534 -29.968033112300954 0 -34.0344737228562 -32.178523690694654 0 -34.493742646237514 -34.4583014111969 0 -34.91557417022771 -36.82591986479196 0 -35.286636619473136 -39.30754453818876 0 -35.5914976153796 -41.93919398107528 0 -35.81544412825938 -44.768018490633494 0 -35.9516834690417 -47.84934905054616 0 -36.0155329652783 -51.232285407251865 0 -36.06248113820674 -54.92501768041233 0 -36.19199938652616 -58.84033702385221 0 -36.5095947249371 -62.73871958231924 0 -20.71370769263581 12.928267209021975 0 -20.93879701073144 12.625532617138719 0 -21.04774121167122 12.434784789250994 0 -21.09293373081702 12.14315923655269 0 -21.131599310171115 11.656359266988101 0 -21.204019199218994 10.954680857139495 0 -21.331105865765846 10.054494472177318 0 -21.519222075685793 8.984995516581357 0 -21.765924671975224 7.77657229997986 0 -22.06442355623908 6.455966357840316 0 -22.406444845842376 5.044885420818181 0 -22.783826816219523 3.5601620925487283 0 -23.189274725417498 2.014480868892042 0 -23.61661880224243 0.4172175702999598 0 -24.06080853258728 -1.224796411160547 0 -24.517785102866974 -2.9066444732367915 0 -24.984311009641512 -4.624833374928587 0 -25.457796658150887 -6.376922994781496 0 -25.9361410351617 -8.161255633374076 0 -26.417591152869495 -9.976765191306315 0 -26.90061862421002 -11.82285077982876 0 -27.383808696552375 -13.699303983629026 0 -27.865755693276583 -15.606283492154812 0 -28.344958167428075 -17.544335108332636 0 -28.819706705494433 -19.514459447496012 0 -29.28795712489623 -21.518234279123725 0 -29.747182026144106 -23.55800377760003 0 -30.194195033433957 -25.6371531444174 0 -30.624946216174372 -27.760493882099272 0 -31.034297395436425 -29.93479087316821 0 -31.415808525202802 -32.16946252096717 0 -31.76161231233277 -34.477467146133705 0 -32.062542205667306 -36.87632374963281 0 -32.30883407261511 -39.389041622235275 0 -32.49196025398718 -42.0443352865583 0 -32.608409795884604 -44.87471556935834 0 -32.666111453053034 -47.90986432201398 0 -32.69251794430653 -51.16207971010615 0 -32.73911692886459 -54.602716224961725 0 -32.87278435401424 -58.1342110727728 0 -33.14552971458544 -61.56845038612363 0 -20.02158846338544 13.899577374786375 0 -20.227121295649987 13.273688345461894 0 -20.339232929996886 12.786943840049023 0 -20.38644164306611 12.27908401450476 0 -20.40928421469766 11.658291167368557 0 -20.44260165696535 10.887089926832681 0 -20.50956455698482 9.961065893641832 0 -20.622186270916778 8.892290619586326 0 -20.7841725987283 7.699021285015843 0 -20.993954026455167 6.400164832080979 0 -21.247092436507856 5.012723722263381 0 -21.5379250926997 3.550903406347188 0 -21.860568050310167 2.0260546387713836 0 -22.209460279958993 0.44698037894891496 0 -22.57960960315596 -1.1796401121793034 0 -22.966659962118683 -2.848829324113737 0 -23.366860027177264 -4.556942102303173 0 -23.77698271466189 -6.301364517133045 0 -24.194224119332606 -8.08028082538872 0 -24.61609674116532 -9.892502335642087 0 -25.04032351613813 -11.737350897738636 0 -25.464734243490014 -13.614590977602417 0 -25.887163260978973 -15.524406569427516 0 -26.305345855453503 -17.467421959659365 0 -26.71681051208813 -19.44476836129143 0 -27.118764674338365 -21.45820157250194 0 -27.507973590332636 -23.510278885989994 0 -27.88063599688433 -25.604605922756484 0 -28.232268607995216 -27.746164444422885 0 -28.55762664441104 -29.94172720209393 0 -28.850714656108842 -32.200348491814985 0 -29.10498693167339 -34.53387545987597 0 -29.313905360160128 -36.95733035560975 0 -29.472109940300967 -39.48882936211552 0 -29.577520354776063 -42.14839041538514 0 -29.63458230538035 -44.954569397978425 0 -29.658280239781735 -47.91762645759789 0 -29.677156751430843 -51.0284873481851 0 -29.731847039509912 -54.244636196862515 0 -29.865116093920232 -57.47683027204265 0 -30.101602237128667 -60.58291982982642 0 -19.100686351976957 14.731740676057145 0 -19.28639688567213 13.867730659238275 0 -19.398120571943657 13.147022432793678 0 -19.4504868790407 12.451069090563264 0 -19.47093792165496 11.699380463304717 0 -19.487157934341706 10.848590085219922 0 -19.520787782464605 9.882231296346495 0 -19.585838891042457 8.800165409776154 0 -19.689546786477393 7.610652097582449 0 -19.834073589103888 6.325273247219052 0 -20.01822015921481 4.956043870751797 0 -20.238812540087693 3.513964979481913 0 -20.491695334078607 2.0084384274284597 0 -20.77238012022903 0.4471538170948451 0 -21.07643097520148 -1.1637927817668705 0 -21.3996662314563 -2.819686733739178 0 -21.738239743949798 -4.5169640487703075 0 -22.088647345370997 -6.2529990457667095 0 -22.447689200872844 -8.025926736343457 0 -22.81240749250505 -9.834505395467414 0 -23.180010983836574 -11.678019838735302 0 -23.5477928466804 -13.556224266605946 0 -23.91304500531088 -15.469323657281896 0 -24.272970688368055 -17.41799371467195 0 -24.62459664477213 -19.403440752883565 0 -24.964687635068287 -21.427504156175516 0 -25.289668750373917 -23.492804571696247 0 -25.59556665160536 -25.602939681389323 0 -25.87799027434656 -27.762724216790062 0 -26.132186695640723 -29.978458083089 0 -26.353230526793066 -32.25817957517992 0 -26.536435610774404 -34.61180956227289 0 -26.678110174226855 -37.05100414716484 0 -26.77678914724789 -39.58839883218381 0 -26.835015256112335 -42.235765135442364 0 -26.86150332255086 -45.00050362189248 0 -26.873013488853825 -47.88006552034648 0 -26.89456221566813 -50.85454605735952 0 -26.95615078399627 -53.87882786889674 0 -27.084624606155863 -56.876928748525586 0 -27.290945888694747 -59.742154784351214 0 -18.005439683082407 15.450174421924988 0 -18.171764672466267 14.405190961357993 0 -18.279554989112743 13.498834688994263 0 -18.335732538760247 12.643022923279915 0 -18.358406846686687 11.7703212686427 0 -18.368565826736237 10.837736109909713 0 -18.384755233262883 9.822765592986224 0 -18.420776675666346 8.717271666905106 0 -18.485391867043155 7.521922966531944 0 -18.583036015328105 6.24207013585141 0 -18.714867777044123 4.885030947214123 0 -18.87979248660301 3.4584691875374958 0 -19.075305024096007 1.969524783984795 0 -19.298116462966515 0.42441811118667044 0 -19.544584080947196 -1.1716683381681217 0 -19.81098384740285 -2.814560130062409 0 -20.0936660400749 -4.500992888462183 0 -20.389128705955002 -6.228493089177985 0 -20.694035758038403 -7.995263776732867 0 -21.00519911023756 -9.800088853341528 0 -21.319538326555765 -11.642262555465447 0 -21.634026976366798 -13.521547091992288 0 -21.945632140177555 -15.4381597813134 0 -22.2512521572265 -17.39279044542462 0 -22.547657695166443 -19.38664958358345 0 -22.83144265753085 -21.421547279870644 0 -23.09899462279885 -23.500001052433525 0 -23.346499911414025 -25.625366661344877 0 -23.570006569210197 -27.80197726186456 0 -23.76557984283888 -30.035260176725433 0 -23.929598269344662 -32.33177277906881 0 -24.059250400221323 -34.69905502133533 0 -24.153291877674203 -37.14513447893934 0 -24.213087959582122 -39.67745007480349 0 -24.243862094958914 -42.30091799511993 0 -24.255862904766456 -45.014919034642304 0 -24.264866265599625 -47.80922930144849 0 -24.29117431879205 -50.65938559829655 0 -24.3562947098597 -53.522593475189936 0 -24.477001492775226 -56.33586128781168 0 -24.657543962717597 -59.018383796097716 0 -16.773221893482678 16.072883425914373 0 -16.920984741154346 14.886820706421991 0 -17.02221236651663 13.832062147029076 0 -17.079707709181562 12.842039061076699 0 -17.105254271836735 11.861184947593934 0 -17.11434062030697 10.849700261184138 0 -17.122089547478303 9.782805285533959 0 -17.140962802505054 8.647548805319955 0 -17.17992463398277 7.439196076460816 0 -17.244521224304485 6.15813948070224 0 -17.337410870298278 4.807602742753439 0 -17.45903571463421 3.3920895313904302 0 -17.60826377116785 1.916416640599256 0 -17.78292499139389 0.3851619539915475 0 -17.980221090085077 -1.1976143026343717 0 -18.197017239158132 -2.8284800427000363 0 -18.430035241822385 -4.504646089146829 0 -18.675970135844977 -6.223932799160276 0 -18.931550221762 -7.984718400273255 0 -19.193557058775486 -9.785887049099985 0 -19.458818471015157 -11.626787060715762 0 -19.724184740379407 -13.507205110862268 0 -19.98649621154195 -15.427359405731666 0 -20.2425496134015 -17.387912996198008 0 -20.489070585160338 -19.390006862025064 0 -20.722701286319538 -21.435310385523202 0 -20.940014702039065 -23.52608351815242 0 -21.137571424313602 -25.665239191905403 0 -21.312040151222323 -27.8563848474494 0 -21.460409077330162 -30.10380654919742 0 -21.58031941658404 -32.412336447100515 0 -21.670549352129417 -34.78701442146221 0 -21.731657285344006 -37.23242250381202 0 -21.766743511738554 -39.751550598290244 0 -21.782196369277116 -42.34407203677791 0 -21.78815537732469 -45.00400451519246 0 -21.798290336098002 -47.71693242163254 0 -21.828448339429684 -50.45725801003212 0 -21.893865232578932 -53.18626602855611 0 -22.00503964072599 -55.85203081950888 0 -22.163005405786986 -58.39227425279964 0 -15.431151068749996 16.612769926419194 0 -15.561292693815762 15.314634223436865 0 -15.654217362226438 14.140362011081105 0 -15.710615998143002 13.038423111602711 0 -15.738099647464578 11.963050274972966 0 -15.747925764846963 10.878555282798676 0 -15.75205285403798 9.760021246437999 0 -15.76115852327983 8.59189782341332 0 -15.78363638569282 7.365817793520405 0 -15.825323656640725 6.078425158913444 0 -15.889672432657525 4.729568065047739 0 -15.978134554436508 3.3209454219004204 0 -16.090607422336102 1.8551678683839898 0 -16.225854127814596 0.3351478852407609 0 -16.38185755115502 -1.236270243035044 0 -16.55609653332324 -2.856516789100875 0 -16.745747651935194 -4.52339782075385 0 -16.947823162675924 -6.235133460828409 0 -17.159257849094406 -7.99036207938619 0 -17.376957241248892 -9.788129473786965 0 -17.597818395316544 -11.627875110031438 0 -17.818733029871577 -13.50942267550292 0 -18.03658176388789 -15.432978816200052 0 -18.24822775242389 -17.399141343934144 0 -18.450518307148045 -19.408915780709783 0 -18.64030418488634 -21.46373622419495 0 -18.81448810106588 -23.565482465889218 0 -18.970116462826525 -25.71647927354452 0 -19.104530714251684 -27.919454934339296 0 -19.21559569597571 -30.177423963296686 0 -19.302019457522096 -32.493443639609296 0 -19.363767735064283 -34.8701782245218 0 -19.402550979703566 -37.309194751268656 0 -19.422316976446492 -39.80992194130783 0 -19.429617930710425 -42.36824516859768 0 -19.43365111541264 -44.9747997191904 0 -19.445729466827842 -47.61316351672695 0 -19.477969484157896 -50.258318553498114 0 -19.541129894044854 -52.87590509043228 0 -19.64180789769155 -55.42288158693685 0 -19.779568935572698 -57.850176925971176 0 -13.999850435556842 17