# vtk DataFile Version 4.2
Quad2D4N
ASCII

DATASET UNSTRUCTURED_GRID
POINTS 1681 double
0 0 0 25 0 0 50 0 0 75 0 0 100 0 0 125 0 0 150 0 0 175 0 0 200 0 0 225 0 0 250 0 0 275 0 0 300 0 0 325 0 0 350 0 0 375 0 0 400 0 0 425 0 0 450 0 0 475 0 0 500 0 0 525 0 0 550 0 0 575 0 0 600 0 0 625 0 0 650 0 0 675 0 0 700 0 0 725 0 0 750 0 0 775 0 0 800 0 0 825 0 0 850 0 0 875 0 0 900 0 0 925 0 0 950 0 0 975 0 0 1000 0 0 0 25 0 25 25 0 50 25 0 75 25 0 100 25 0 125 25 0 150 25 0 175 25 0 200 25 0 225 25 0 250 25 0 275 25 0 300 25 0 325 25 0 350 25 0 375 25 0 400 25 0 425 25 0 450 25 0 475 25 0 500 25 0 525 25 0 550 25 0 575 25 0 600 25 0 625 25 0 650 25 0 675 25 0 700 25 0 725 25 0 750 25 0 775 25 0 800 25 0 825 25 0 850 25 0 875 25 0 900 25 0 925 25 0 950 25 0 975 25 0 1000 25 0 0 50 0 25 50 0 50 50 0 75 50 0 100 50 0 125 50 0 150 50 0 175 50 0 200 50 0 225 50 0 250 50 0 275 50 0 300 50 0 325 50 0 350 50 0 375 50 0 400 50 0 425 50 0 450 50 0 475 50 0 500 50 0 525 50 0 550 50 0 575 50 0 600 50 0 625 50 0 650 50 0 675 50 0 700 50 0 725 50 0 750 50 0 775 50 0 800 50 0 825 50 0 850 50 0 875 50 0 900 50 0 925 50 0 950 50 0 975 50 0 1000 50 0 0 75 0 25 75 0 50 75 0 75 75 0 100 75 0 125 75 0 150 75 0 175 75 0 200 75 0 225 75 0 250 75 0 275 75 0 300 75 0 325 75 0 350 75 0 375 75 0 400 75 0 425 75 0 450 75 0 475 75 0 500 75 0 525 75 0 550 75 0 575 75 0 600 75 0 625 75 0 650 75 0 675 75 0 700 75 0 725 75 0 750 75 0 775 75 0 800 75 0 825 75 0 850 75 0 875 75 0 900 75 0 925 75 0 950 75 0 975 75 0 1000 75 0 0 100 0 25 100 0 50 100 0 75 100 0 100 100 0 125 100 0 150 100 0 175 100 0 200 100 0 225 100 0 250 100 0 275 100 0 300 100 0 325 100 0 350 100 0 375 100 0 400 100 0 425 100 0 450 100 0 475 100 0 500 100 0 525 100 0 550 100 0 575 100 0 600 100 0 625 100 0 650 100 0 675 100 0 700 100 0 725 100 0 750 100 0 775 100 0 800 100 0 825 100 0 850 100 0 875 100 0 900 100 0 925 100 0 950 100 0 975 100 0 1000 100 0 0 125 0 25 125 0 50 125 0 75 125 0 100 125 0 125 125 0 150 125 0 175 125 0 200 125 0 225 125 0 250 125 0 275 125 0 300 125 0 325 125 0 350 125 0 375 125 0 400 125 0 425 125 0 450 125 0 475 125 0 500 125 0 525 125 0 550 125 0 575 125 0 600 125 0 625 125 0 650 125 0 675 125 0 700 125 0 725 125 0 750 125 0 775 125 0 800 125 0 825 125 0 850 125 0 875 125 0 900 125 0 925 125 0 950 125 0 975 125 0 1000 125 0 0 150 0 25 150 0 50 150 0 75 150 0 100 150 0 125 150 0 150 150 0 175 150 0 200 150 0 225 150 0 250 150 0 275 150 0 300 150 0 325 150 0 350 150 0 375 150 0 400 150 0 425 150 0 450 150 0 475 150 0 500 150 0 525 150 0 550 150 0 575 150 0 600 150 0 625 150 0 650 150 0 675 150 0 700 150 0 725 150 0 750 150 0 775 150 0 800 150 0 825 150 0 850 150 0 875 150 0 900 150 0 925 150 0 950 150 0 975 150 0 1000 150 0 0 175 0 25 175 0 50 175 0 75 175 0 100 175 0 125 175 0 150 175 0 175 175 0 200 175 0 225 175 0 250 175 0 275 175 0 300 175 0 325 175 0 350 175 0 375 175 0 400 175 0 425 175 0 450 175 0 475 175 0 500 175 0 525 175 0 550 175 0 575 175 0 600 175 0 625 175 0 650 175 0 675 175 0 700 175 0 725 175 0 750 175 0 775 175 0 800 175 0 825 175 0 850 175 0 875 175 0 900 175 0 925 175 0 950 175 0 975 175 0 1000 175 0 0 200 0 25 200 0 50 200 0 75 200 0 100 200 0 125 200 0 150 200 0 175 200 0 200 200 0 225 200 0 250 200 0 275 200 0 300 200 0 325 200 0 350 200 0 375 200 0 400 200 0 425 200 0 450 200 0 475 200 0 500 200 0 525 200 0 550 200 0 575 200 0 600 200 0 625 200 0 650 200 0 675 200 0 700 200 0 725 200 0 750 200 0 775 200 0 800 200 0 825 200 0 850 200 0 875 200 0 900 200 0 925 200 0 950 200 0 975 200 0 1000 200 0 0 225 0 25 225 0 50 225 0 75 225 0 100 225 0 125 225 0 150 225 0 175 225 0 200 225 0 225 225 0 250 225 0 275 225 0 300 225 0 325 225 0 350 225 0 375 225 0 400 225 0 425 225 0 450 225 0 475 225 0 500 225 0 525 225 0 550 225 0 575 225 0 600 225 0 625 225 0 650 225 0 675 225 0 700 225 0 725 225 0 750 225 0 775 225 0 800 225 0 825 225 0 850 225 0 875 225 0 900 225 0 925 225 0 950 225 0 975 225 0 1000 225 0 0 250 0 25 250 0 50 250 0 75 250 0 100 250 0 125 250 0 150 250 0 175 250 0 200 250 0 225 250 0 250 250 0 275 250 0 300 250 0 325 250 0 350 250 0 375 250 0 400 250 0 425 250 0 450 250 0 475 250 0 500 250 0 525 250 0 550 250 0 575 250 0 600 250 0 625 250 0 650 250 0 675 250 0 700 250 0 725 250 0 750 250 0 775 250 0 800 250 0 825 250 0 850 250 0 875 250 0 900 250 0 925 250 0 950 250 0 975 250 0 1000 250 0 0 275 0 25 275 0 50 275 0 75 275 0 100 275 0 125 275 0 150 275 0 175 275 0 200 275 0 225 275 0 250 275 0 275 275 0 300 275 0 325 275 0 350 275 0 375 275 0 400 275 0 425 275 0 450 275 0 475 275 0 500 275 0 525 275 0 550 275 0 575 275 0 600 275 0 625 275 0 650 275 0 675 275 0 700 275 0 725 275 0 750 275 0 775 275 0 800 275 0 825 275 0 850 275 0 875 275 0 900 275 0 925 275 0 950 275 0 975 275 0 1000 275 0 0 300 0 25 300 0 50 300 0 75 300 0 100 300 0 125 300 0 150 300 0 175 300 0 200 300 0 225 300 0 250 300 0 275 300 0 300 300 0 325 300 0 350 300 0 375 300 0 400 300 0 425 300 0 450 300 0 475 300 0 500 300 0 525 300 0 550 300 0 575 300 0 600 300 0 625 300 0 650 300 0 675 300 0 700 300 0 725 300 0 750 300 0 775 300 0 800 300 0 825 300 0 850 300 0 875 300 0 900 300 0 925 300 0 950 300 0 975 300 0 1000 300 0 0 325 0 25 325 0 50 325 0 75 325 0 100 325 0 125 325 0 150 325 0 175 325 0 200 325 0 225 325 0 250 325 0 275 325 0 300 325 0 325 325 0 350 325 0 375 325 0 400 325 0 425 325 0 450 325 0 475 325 0 500 325 0 525 325 0 550 325 0 575 325 0 600 325 0 625 325 0 650 325 0 675 325 0 700 325 0 725 325 0 750 325 0 775 325 0 800 325 0 825 325 0 850 325 0 875 325 0 900 325 0 925 325 0 950 325 0 975 325 0 1000 325 0 0 350 0 25 350 0 50 350 0 75 350 0 100 350 0 125 350 0 150 350 0 175 350 0 200 350 0 225 350 0 250 350 0 275 350 0 300 350 0 325 350 0 350 350 0 375 350 0 400 350 0 425 350 0 450 350 0 475 350 0 500 350 0 525 350 0 550 350 0 575 350 0 600 350 0 625 350 0 650 350 0 675 350 0 700 350 0 725 350 0 750 350 0 775 350 0 800 350 0 825 350 0 850 350 0 875 350 0 900 350 0 925 350 0 950 350 0 975 350 0 1000 350 0 0 375 0 25 375 0 50 375 0 75 375 0 100 375 0 125 375 0 150 375 0 175 375 0 200 375 0 225 375 0 250 375 0 275 375 0 300 375 0 325 375 0 350 375 0 375 375 0 400 375 0 425 375 0 450 375 0 475 375 0 500 375 0 525 375 0 550 375 0 575 375 0 600 375 0 625 375 0 650 375 0 675 375 0 700 375 0 725 375 0 750 375 0 775 375 0 800 375 0 825 375 0 850 375 0 875 375 0 900 375 0 925 375 0 950 375 0 975 375 0 1000 375 0 0 400 0 25 400 0 50 400 0 75 400 0 100 400 0 125 400 0 150 400 0 175 400 0 200 400 0 225 400 0 250 400 0 275 400 0 300 400 0 325 400 0 350 400 0 375 400 0 400 400 0 425 400 0 450 400 0 475 400 0 500 400 0 525 400 0 550 400 0 575 400 0 600 400 0 625 400 0 650 400 0 675 400 0 700 400 0 725 400 0 750 400 0 775 400 0 800 400 0 825 400 0 850 400 0 875 400 0 900 400 0 925 400 0 950 400 0 975 400 0 1000 400 0 0 425 0 25 425 0 50 425 0 75 425 0 100 425 0 125 425 0 150 425 0 175 425 0 200 425 0 225 425 0 250 425 0 275 425 0 300 425 0 325 425 0 350 425 0 375 425 0 400 425 0 425 425 0 450 425 0 475 425 0 500 425 0 525 425 0 550 425 0 575 425 0 600 425 0 625 425 0 650 425 0 675 425 0 700 425 0 725 425 0 750 425 0 775 425 0 800 425 0 825 425 0 850 425 0 875 425 0 900 425 0 925 425 0 950 425 0 975 425 0 1000 425 0 0 450 0 25 450 0 50 450 0 75 450 0 100 450 0 125 450 0 150 450 0 175 450 0 200 450 0 225 450 0 250 450 0 275 450 0 300 450 0 325 450 0 350 450 0 375 450 0 400 450 0 425 450 0 450 450 0 475 450 0 500 450 0 525 450 0 550 450 0 575 450 0 600 450 0 625 450 0 650 450 0 675 450 0 700 450 0 725 450 0 750 450 0 775 450 0 800 450 0 825 450 0 850 450 0 875 450 0 900 450 0 925 450 0 950 450 0 975 450 0 1000 450 0 0 475 0 25 475 0 50 475 0 75 475 0 100 475 0 125 475 0 150 475 0 175 475 0 200 475 0 225 475 0 250 475 0 275 475 0 300 475 0 325 475 0 350 475 0 375 475 0 400 475 0 425 475 0 450 475 0 475 475 0 500 475 0 525 475 0 550 475 0 575 475 0 600 475 0 625 475 0 650 475 0 675 475 0 700 475 0 725 475 0 750 475 0 775 475 0 800 475 0 825 475 0 850 475 0 875 475 0 900 475 0 925 475 0 950 475 0 975 475 0 1000 475 0 0 500 0 25 500 0 50 500 0 75 500 0 100 500 0 125 500 0 150 500 0 175 500 0 200 500 0 225 500 0 250 500 0 275 500 0 300 500 0 325 500 0 350 500 0 375 500 0 400 500 0 425 500 0 450 500 0 475 500 0 500 500 0 525 500 0 550 500 0 575 500 0 600 500 0 625 500 0 650 500 0 675 500 0 700 500 0 725 500 0 750 500 0 775 500 0 800 500 0 825 500 0 850 500 0 875 500 0 900 500 0 925 500 0 950 500 0 975 500 0 1000 500 0 0 525 0 25 525 0 50 525 0 75 525 0 100 525 0 125 525 0 150 525 0 175 525 0 200 525 0 225 525 0 250 525 0 275 525 0 300 525 0 325 525 0 350 525 0 375 525 0 400 525 0 425 525 0 450 525 0 475 525 0 500 525 0 525 525 0 550 525 0 575 525 0 600 525 0 625 525 0 650 525 0 675 525 0 700 525 0 725 525 0 750 525 0 775 525 0 800 525 0 825 525 0 850 525 0 875 525 0 900 525 0 925 525 0 950 525 0 975 525 0 1000 525 0 0 550 0 25 550 0 50 550 0 75 550 0 100 550 0 125 550 0 150 550 0 175 550 0 200 550 0 225 550 0 250 550 0 275 550 0 300 550 0 325 550 0 350 550 0 375 550 0 400 550 0 425 550 0 450 550 0 475 550 0 500 550 0 525 550 0 550 550 0 575 550 0 600 550 0 625 550 0 650 550 0 675 550 0 700 550 0 725 550 0 750 550 0 775 550 0 800 550 0 825 550 0 850 550 0 875 550 0 900 550 0 925 550 0 950 550 0 975 550 0 1000 550 0 0 575 0 25 575 0 50 575 0 75 575 0 100 575 0 125 575 0 150 575 0 175 575 0 200 575 0 225 575 0 250 575 0 275 575 0 300 575 0 325 575 0 350 575 0 375 575 0 400 575 0 425 575 0 450 575 0 475 575 0 500 575 0 525 575 0 550 575 0 575 575 0 600 575 0 625 575 0 650 575 0 675 575 0 700 575 0 725 575 0 750 575 0 775 575 0 800 575 0 825 575 0 850 575 0 875 575 0 900 575 0 925 575 0 950 575 0 975 575 0 1000 575 0 0 600 0 25 600 0 50 600 0 75 600 0 100 600 0 125 600 0 150 600 0 175 600 0 200 600 0 225 600 0 250 600 0 275 600 0 300 600 0 325 600 0 350 600 0 375 600 0 400 600 0 425 600 0 450 600 0 475 600 0 500 600 0 525 600 0 550 600 0 575 600 0 600 600 0 625 600 0 650 600 0 675 600 0 700 600 0 725 600 0 750 600 0 775 600 0 800 600 0 825 600 0 850 600 0 875 600 0 900 600 0 925 600 
[...]
POINT_DATA 1681

VECTORS displacement double
0 0 0 -0.110348176303436 0.1035104004774946 0 -0.17393183959941463 0.12264875192754214 0 -0.21400656505873494 0.12395000954838535 0 -0.2428115264206064 0.11773717143445302 0 -0.265302325352175 0.10754517146023458 0 -0.2838039351845173 0.09486740908754891 0 -0.29958175217565686 0.08050046851466144 0 -0.3134038740699266 0.0649145860901609 0 -0.3257736656631699 0.04840713017468782 0 -0.33703976161267046 0.031174535521778797 0 -0.3474538792314511 0.013350485329062453 0 -0.35720375816878014 -0.0049722152302091194 0 -0.3664331673056352 -0.02372832575491947 0 -0.37525472214957845 -0.042871678280546076 0 -0.3837584882328083 -0.06236955887424574 0 -0.39201800918302954 -0.08219888923180346 0 -0.40009470968232924 -0.10234358790263454 0 -0.4080412507424667 -0.12279273954008987 0 -0.41590420483085755 -0.14353934413974542 0 -0.42372629719377014 -0.16457950543121805 0 -0.4315483895566823 -0.18591197385912958 0 -0.43941134364507284 -0.20753799897885788 0 -0.44735788470521015 -0.22946147706078668 0 -0.45543458520450975 -0.25168940810933943 0 -0.4636941061547308 -0.27423270747116574 0 -0.47219787223796056 -0.29710745659685034 0 -0.48101942708190387 -0.3203367337906076 0 -0.49024883621875887 -0.34395325298528107 0 -0.4999987151560882 -0.3680031821453933 0 -0.5104128327748692 -0.39255176167206146 0 -0.5216789287243702 -0.41769179673853696 0 -0.5340487203176135 -0.4435569705424489 0 -0.5478708422118834 -0.4703437178373333 0 -0.5636486592030233 -0.4983494069838313 0 -0.582150269035366 -0.5280442743305308 0 -0.6046410679669354 -0.5602249040756979 0 -0.633446029328808 -0.5963846956811519 0 -0.6735207547881292 -0.6400585830213831 0 -0.7371044180841091 -0.7015695641908201 0 -0.847452594387545 -0.8474525943877171 0 -0.1842744665591076 0.03900753279610481 0 -0.18269912008274322 0.11138281842925614 0 -0.19896209911689516 0.130965090251358 0 -0.22038321935339303 0.13107955432574117 0 -0.24021464101324697 0.12380420688366965 0 -0.2576501351410277 0.11274522952867211 0 -0.2729704117894051 0.09940208085463428 0 -0.28658775023165267 0.08452443857987453 0 -0.2988572963091384 0.06854325115220496 0 -0.3100597481748241 0.05172676154932981 0 -0.3204136722549855 0.03425060165935268 0 -0.3300901067291328 0.016233515906741724 0 -0.3392243701739293 -0.0022425682508917613 0 -0.34792490283028926 -0.021120448906652777 0 -0.35627979750999983 -0.040359969811129444 0 -0.3643616686419892 -0.059932943782311454 0 -0.37223135370077665 -0.07981969902924502 0 -0.37994079999582153 -0.10000668779326033 0 -0.387535385724664 -0.12048482354979438 0 -0.3950558528659873 -0.1412483425790401 0 -0.40253998233407795 -0.16229406395009802 0 -0.41002411180216847 -0.18362097229842433 0 -0.41754457894349156 -0.20523008298856246 0 -0.4251391646723339 -0.2271245769514124 0 -0.43284861096737864 -0.24931021790678093 0 -0.4407182960261659 -0.2717960923792316 0 -0.448800167158155 -0.2945957481274336 0 -0.4571550618378659 -0.3177288569423409 0 -0.4658555944942257 -0.3412236060059637 0 -0.47498985793902215 -0.36512015156771405 0 -0.4846662924131696 -0.3894756955344875 0 -0.495020216493331 -0.414372165363895 0 -0.5062226683590169 -0.43992830548040485 0 -0.5184922144365024 -0.46631974777212026 0 -0.5321095528787502 -0.49381473521674574 0 -0.5474298295271278 -0.522844216262093 0 -0.5648653236549088 -0.5541578686264812 0 -0.5846967453147627 -0.5892551509037961 0 -0.6061178655512601 -0.631742244697567 0 -0.6223808445854109 -0.6936971462390589 0 -0.6208054981090475 -0.8084450615916011 0 -0.22339026733609124 0.07520233224196253 0 -0.22902590161172476 0.10823150484329788 0 -0.2290189638795952 0.1296112571833221 0 -0.234861626795615 0.13250458240466617 0 -0.24449239072003837 0.1264098624715136 0 -0.25534009952351866 0.11573967169055993 0 -0.2662519523378416 0.10245240381208763 0 -0.2767873475964056 0.08750173814532036 0 -0.2868140119188314 0.0714040614302022 0 -0.29632510947415464 0.0544636245613436 0 -0.30536242699660615 0.03687093557818976 0 -0.31398381428978644 0.018750344180033837 0 -0.3222494465716968 0.00018526405718545871 0 -0.3302162635182523 -0.018767411838010006 0 -0.3379360459439457 -0.03806855015067549 0 -0.3454551240619613 -0.05769118843980473 0 -0.35281480771300167 -0.07761683800335063 0 -0.36005211995121567 -0.09783297849178951 0 -0.3672006423243382 -0.1183313438821147 0 -0.3742913876141822 -0.13910676284828022 0 -0.3813536674743855 -0.16015641119236157 0 -0.3884159473345891 -0.18147939256766443 0 -0.3955066926244331 -0.20307660332088281 0 -0.40265521499755536 -0.22495086764994157 0 -0.40989252723576897 -0.2471073568808867 0 -0.41725221088680897 -0.2695543370367248 0 -0.42477128900482497 -0.29230432846697957 0 -0.43249107143051824 -0.31537581987369806 0 -0.44045788837707384 -0.33879577369788644 0 -0.4487235206589841 -0.36260332329442213 0 -0.4573449079521642 -0.38685536161565065 0 -0.46638222547461555 -0.4116353023518812 0 -0.4758933230299386 -0.43706749520240756 0 -0.4859199873523643 -0.4633424482066744 0 -0.49645538261092836 -0.4907644122592922 0 -0.5073672354252512 -0.5198497741002052 0 -0.5182149442287312 -0.5515522130386371 0 -0.527845708153154 -0.5878301228248711 0 -0.533688371069173 -0.6330960777656028 0 -0.5336814333370433 -0.6968484598250151 0 -0.5393170676126775 -0.7722502621457374 0 -0.24049977966974098 0.10060620683781518 0 -0.24418887598998282 0.11442328313331018 0 -0.2448721417169577 0.126881082750657 0 -0.24557060369833345 0.13048919355522287 0 -0.24895174484209728 0.12593604859889548 0 -0.25450822355136166 0.11635947482797623 0 -0.2613040965187566 0.10372207553632401 0 -0.268689568670017 0.08913658132958245 0 -0.276287513701456 0.07323659598277592 0 -0.2838959660331068 0.05639786665911352 0 -0.29141426073189924 0.03885250097393611 0 -0.298798406901964 0.020748912963413267 0 -0.3060355854116214 0.0021844898737791254 0 -0.3131297947415502 -0.016775723065533554 0 -0.3200937969305838 -0.036087831382178366 0 -0.3269446218854734 -0.05572210502857716 0 -0.3337010997289478 -0.07565846572113392 0 -0.3403825624208793 -0.09588349892685731 0 -0.34700822612719345 -0.11638845144147027 0 -0.35359697133455814 -0.13716789967660684 0 -0.3601673526146935 -0.1582189023411143 0 -0.3667377338948286 -0.179540529395991 0 -0.3733264791021932 -0.20113371088023846 0 -0.379952142808507 -0.22300138808500944 0 -0.38663360550043824 -0.24514898459867004 0 -0.3933900833439128 -0.2675852536254972 0 -0.40024090829880243 -0.2903236096984823 0 -0.407204910487836 -0.31338413110122154 0 -0.41429911981776474 -0.33679654788129276 0 -0.421536298327422 -0.3606047545110429 0 -0.4289204444974866 -0.3848737962199045 0 -0.4364387391962785 -0.4097010602541116 0 -0.44404719152792915 -0.435234960649834 0 -0.4516451365593679 -0.4617076050224124 0 -0.45903060871062806 -0.4894947405350558 0 -0.46582648167802293 -0.5192299709627887 0 -0.4713829603872869 -0.5520260269112554 0 -0.4747641015310501 -0.5898455116743144 0 -0.4754625635124255 -0.6358262521982669 0 -0.47614582923940046 -0.6906566815350004 0 -0.47983492555964297 -0.7468463875498811 0 -0.24456882657441356 0.11897180862603196 0 -0.24801395562082776 0.12261434624836644 0 -0.24897312682506736 0.12753218461891463 0 -0.24905706297996302 0.12851402531381587 0 -0.2499327016152002 0.12419570164187566 0 -0.2523469877146692 0.11543529839128294 0 -0.2561307112125289 0.10355483809913851 0 -0.2608926924262338 0.08954043725616936 0 -0.2662866072451024 0.07404432109288904 0 -0.2720624549119251 0.05748489905475182 0 -0.27805405799030286 0.04013168185062868 0 -0.28415579036432964 0.022160543794818046 0 -0.29030287219403084 0.003687877002442367 0 -0.2964572655464199 -0.015208409926801694 0 -0.3025981836583362 -0.03447578194537312 0 -0.3087158667175765 -0.054078717762250615 0 -0.31480754547747 -0.07399326475616542 0 -0.32087483685753 -0.09420343246220876 0 -0.3269220661156287 -0.11469878571635128 0 -0.33295518147213204 -0.13547285362525863 0 -0.3389810377550012 -0.15652212334779078 0 -0.3450068940378703 -0.17784548334464276 0 -0.35104000939437335 -0.19944404515511954 0 -0.3570872386524718 -0.22132132162036103 0 -0.3631545300325318 -0.24348378363370143 0 -0.3692462087924255 -0.2659418663591705 0 -0.37536389185166585 -0.2887115602616771 0 -0.3815048099635822 -0.3118168179624897 0 -0.38765920331597115 -0.33529316075262966 0 -0.39380628514567184 -0.3591931236796382 0 -0.39990801751969823 -0.3835946153432124 0 -0.4058996205980757 -0.4086140278584735 0 -0.41167546826489826 -0.4344272355397209 0 -0.4170693830837667 -0.4613037490958256 0 -0.4218313642974711 -0.48966197797224126 0 -0.42561508779533047 -0.5201541473994816 0 -0.4280293738947991 -0.5537663738682749 0 -0.42890501253003604 -0.591820679915721 0 -0.4289889486849314 -0.635175150330008 0 -0.42994811988917114 -0.6824656184199422 0 -0.43339324893558584 -0.7284807857616616 0 -0.2421279255492506 0.1333119553974521 0 -0.24509355936729593 0.1308030752927972 0 -0.24635980747459427 0.13012918798025702 0 -0.24652731666224573 0.1279447830234884 0 -0.24668390083585284 0.12260513283030443 0 -0.24758875614489342 0.11396062072504266 0 -0.24951121081556354 0.10255771747223705 0 -0.25238060341723134 0.08906155684388486 0 -0.2560095390385176 0.07401650002618279 0 -0.26020500609591546 0.05781970475474862 0 -0.2648065184589898 0.040748478922263194 0 -0.26969202451922386 0.022993633515068168 0 -0.27477277770145175 0.004686023648955034 0 -0.27998587492896937 -0.014084557984747862 0 -0.2852874628663048 -0.033256445773551746 0 -0.2906473505001769 -0.05278733598999271 0 -0.2960449776159673 -0.07264834441160499 0 -0.30146647233279844 -0.09281996694230513 0 -0.3069025159493659 -0.1132893398112388 0 -0.31234677658382615 -0.13404841097365222 0 -0.31779472289530897 -0.15509277751613298 0 -0.32324266920679173 -0.17642104069303643 0 -0.3286869298412518 -0.19803459925000713 0 -0.3341229734578191 -0.21993785610045746 0 -0.3395444681746501 -0.242138863289141 0 -0.34494209529044073 -0.26465048458691265 0 -0.35030198292431286 -0.28749222408985586 0 -0.35560357086164807 -0.310692966020436 0 -0.3608166680891655 -0.3342950141061171 0 -0.36589742127139313 -0.3583600339593884 0 -0.3707829273316269 -0.38297781827157784 0 -0.3753844396947009 -0.4082792221584768 0 -0.37957990675209835 -0.43445505660642725 0 -0.38320884237338415 -0.4617826295081101 0 -0.3860782349750516 -0.49065909859914264 0 -0.38800068964572143 -0.5216288250657221 0 -0.38890554495476165 -0.5553569426798458 0 -0.3890621291283685 -0.5923899222060477 0 -0.3892296383160201 -0.6325781469686645 0 -0.39049588642331856 -0.6742768893755097 0 -0.3934615202413643 -0.7141406389902395 0 -0.23540125494669972 0.14499248829580394 0 -0.2379955786758189 0.138400341905284 0 -0.2393557628565768 0.13365231901445776 0 -0.23973734866120291 0.12855741930809717 0 -0.23976644279931356 0.1217111350295575 0 -0.24004944317790008 0.1125915764965211 0 -0.24094915121721358 0.10127447947556834 0 -0.24258562185944507 0.08809240590470425 0 -0.24492416998603742 0.07341866255460391 0 -0.24786412314992493 0.057574947813927246 0 -0.2512906226397499 0.04081150554966429 0 -0.25509813027122774 0.023313840283570957 0 -0.25919825229108256 0.005216210492226203 0 -0.26352031221004785 -0.01338545483135638 0 -0.26800912260226883 -0.03242316179552085 0 -0.2726220262724453 -0.05184904809091972 0 -0.27732605765412194 -0.07162971119601597 0 -0.2820955044099786 -0.09174216128823103 0 -0.2869099023417079 -0.1121709814321778 0 -0.29175240104788275 -0.13290638736362614 0 -0.2966084080356168 -0.15394297464840206 0 -0.3014644150233508 -0.17527901708301036 0 -0.3063069137295257 -0.19691624087094603 0 -0.31112131166125484 -0.21886005044638338 0 -0.31589075841711156 -0.241120230073552 0 -0.32059478979878825 -0.2637121966878397 0 -0.3252076934689647 -0.2866589401118251 0 -0.32969650386118554 -0.30999386286704467 0 -0.3340185637801504 -0.3337648272628461 0 -0.3381186858000049 -0.35803982719088556 0 -0.34192619343148256 -0.3829147916441769 0 -0.34535269292130705 -0.4085239790992983 0 -0.3482926460851942 -0.43505289407800624 0 -0.3506311942117862 -0.46275178044729065 0 -0.35226766485401734 -0.4919423365958113 0 -0.35316737289333056 -0.5229978692942434 0 -0.3534503732719167 -0.5562509404805924 0 -0.35347946741002734 -0.5917772859214382 0 -0.35386105321465333 -0.6290550159344624 0 -0.3552212373954116 -0.6666796227630215 0 -0.35781556112453106 -0.7024601060918858 0 -0.2257006976231047 0.15478250443416935 0 -0.2279728400545508 0.14528510233235006 0 -0.22933081436385308 0.13750440385127516 0 -0.22986952865702417 0.12995237791799535 0 -0.2299573597687607 0.1215186535526225 0 -0.23002454709263323 0.11160695923530346 0 -0.2304080627591642 0.10005196961282617 0 -0.23129652030099654 0.08694932481339097 0 -0.2327513190012167 0.07250474943580598 0 -0.23475257180367903 0.05694178558778033 0 -0.23724030120441467 0.040459398901516334 0 -0.2401410281801762 0.02321927464666947 0 -0.2433820406570843 0.005346543682020201 0 -0.24689775820023907 -0.01306469090646178 0 -0.2506317154033977 -0.031944971022393756 0 -0.2545363740914698 -0.051243757271648156 0 -0.2585719962899228 -0.07092478577763404 0 -0.2627052066629815 -0.09096250198091027 0 -0.2669075345786218 -0.11133942636010208 0 -0.27115404698556933 -0.13204428871308635 0 -0.27542209317592475 -0.15307079360822792 0 -0.27969013936628 -0.17441691843247054 0 -0.2839366517732275 -0.19608468579887017 0 -0.28813897968886776 -0.21808039113906258 0 -0.29227219006192656 -0.24041530465517014 0 -0.29630781226037956 -0.26310690586856816 0 -0.30021247094845166 -0.286180749338698 0 -0.3039464281516104 -0.3096730989421501 0 -0.30746214569476493 -0.3336344940730524 0 -0.31070315817167254 -0.35813439282778725 0 -0.3136038851474336 -0.38326689829232485 0 -0.31609161454816886 -0.40915714132544534 0 -0.31809286735063075 -0.43596680719680403 0 -0.3195476660508506 -0.4638948615386038 0 -0.32043612359268286 -0.49316484645855335 0 -0.32081963925921353 -0.5239824865554606 0 -0.3208868265830858 -0.5564434219575268 0 -0.3209746576948222 -0.5903823273115391 0 -0.32151337198799335 -0.6252029310976441 0 -0.32287134629729575 -0.659794862335954 0 -0.3251434887287424 -0.692670089953519 0 -0.21379309344637162 0.163132096392315 0 -0.21579001360446687 0.15146631183651998 0 -0.21708971754295603 0.14137113784907793 0 -0.21771985904093671 0.13179519780870616 0 -0.2178983272132654 0.12187567548144046 0 -0.21792235419130687 0.11105115941766798 0 -0.21806580501892367 0.0990547509592018 0 -0.21852324764595832 0.08583647204538562 0 -0.21940006760283062 0.07147188841670857 0 -0.2207297400146114 0.056090198860645965 0 -0.22249847963760938 0.03983012845744483 0 -0.22466658812821697 0.022818066390804963 0 -0.22718320844701395 0.005160015787947474 0 -0.22999517223868776 -0.013059327840998098 0 -0.2330516522784339 -0.03177439870169981 0 -0.23630618097388287 -0.05093560923814264 0 -0.23971714794823232 -0.07050622225151489 0 -0.24324748171970537 -0.09045965140496509 0 -0.24686392845028168 -0.11077731057942027 0 -0.25053615342104835 -0.13144701089160252 0 -0.2542357783162326 -0.15246186317135926 0 -0.2579354032114169 -0.17381964061098673 0 -0.26160762818218347 -0.19552257001818837 0 -0.26522407491275973 -0.21757754056311734 0 -0.26875440868423295 -0.23999674112905095 0 -0.2721653756585824 -0.2627987578350628 0 -0.2754199043540312 -0.28601017701800413 0 -0.27847638439377725 -0.3096677358766865 0 -0.2812883481854509 -0.3338210219671252 0 -0.2838049685042477 -0.3585356010836522 0 -0.2859730769948549 -0.38389616873639654 0 -0.28774181661785264 -0.4100087280525797 0 -0.289071489029633 -0.4369996682159014 0 -0.289948308986505 -0.4650077143066089 0 -0.2904057516135393 -0.4941620651121774 0 -0.29054920244115595 -0.524538286373096 0 -0.29057322941919717 -0.5560864000287083 0 -0.2907516975915258 -0.5885395074208275 0 -0.29138183908950643 -0.6213361970998406 0 -0.2926815430279957 -0.653613652831783 0 -0.2946784631860913 -0.684320497995372 0 -0.200185827696934 0.1703278082459941 0 -0.20194213268641506 0.15698714712672251 0 -0.20315511311831796 0.14508556097073327 0 -0.20382304838906098 0.13385161859864833 0 -0.20407722194781183 0.12261079656343196 0 -0.2041212598054594 0.11086870151373507 0 -0.2041663978410589 0.09832866040715266 0 -0.2043861462179862 0.08486086669337858 0 -0.20489733835738946 0.07045109603369107 0 -0.20576149059252002 0.05515129545714367 0 -0.2069965095097186 0.0390426257005586 0 -0.2085906636606788 0.022212358440849112 0 -0.210514587480529 0.004741612778352966 0 -0.21272999776334703 -0.013299878254371143 0 -0.21519533974248586 -0.03185503108429786 0 -0.2178690829824649 -0.05087871332979308 0 -0.2207113998348271 -0.07033625999229853 0 -0.2236848043559293 -0.09020183414323661 0 -0.2267541563692373 -0.11045694110917374 0 -0.22988629464316834 -0.13108923091945876 0 -0.23304946345654057 -0.15209163693333014 0 -0.2362126322699128 -0.17346186063884297 0 -0.23934477054384398 -0.19520220054794185 0 -0.2424141225571519 -0.21731972330138882 0 -0.24538752707825412 -0.2398267788698346 0 -0.24822984393061634 -0.26274186192671334 0 -0.2509035871705952 -0.2860908094006022 0 -0.2533689291497339 -0.3099082862900597 0 -0.25558433943255165 -0.3342394249767199 0 -0.25750826325240167 -0.35914130903360814 0 -0.25910241740336165 -0.38468367149328275 0 -0.26033743632055983 -0.4109476314560819 0 -0.2612015885556901 -0.4380204605989189 0 -0.261712780695093 -0.46598331965861584 0 -0.2619325290720201 -0.49488815566422634 0 -0.2619776671076194 -0.5247207442770286 0 -0.26202170496526667 -0.5553512789467163 0 -0.26227587852401746 -0.5864830866308847 0 -0.26294381379476056 -0.6176217739781844 0 -0.26415679422666355 -0.6480928175415793 0 -0.265913099216145 -0.6771247861416918 0 -0.18523303935281887 0.17656079986675277 0 -0.1867752299755748 0.16189498881663097 0 -0.18788676280246927 0.14855825493813637 0 -0.18855415306141043 0.13596437000441425 0 -0.18885763337193512 0.12357783986414626 0 -0.18893725940144823 0.11097319145216336 0 -0.1889521200732562 0.09785775320152049 0 -0.18904694484935014 0.08406294136963682 0 -0.18933284976811604 0.06951742617560608 0 -0.18988169555445075 0.05421553452253534 0 -0.19072957447892436 0.038189563374190126 0 -0.1918845101762359 0.02148944778594594 0 -0.19333482495368984 0.004169719112985227 0 -0.19505633344435164 -0.013717861058919785 0 -0.19701775856691323 -0.03212784377240908 0 -0.19918443611639347 -0.05102233068262878 0 -0.20152063290149627 -0.0703709668825334 0 -0.20399084294817854 -0.09015035965535166 0 -0.2065603754756519 -0.11034331872245015 0 -0.20919547512438472 -0.1309381372018066 0 -0.21186314859684863 -0.1519280274330981 0 -0.2145308220693126 -0.1733107669211908 0 -0.21716592171804536 -0.19508857816121822 0 -0.2197354542455186 -0.2172682488135039 0 -0.22220566429220098 -0.23986148576006952 0 -0.22454186107730376 -0.262885479279549 0 -0.22670853862678392 -0.28636362208871363 0 -0.22866996374934515 -0.31032626909460836 0 -0.23039147224000683 -0.3348113186420877 0 -0.23184178701746067 -0.35986421968851123 0 -0.23299672271477195 -0.38553673381965126 0 -0.2338446016392454 -0.41188339239069044 0 -0.23439344742557958 -0.4389541304570039 0 -0.23467935234434512 -0.4667812449823575 0 -0.2347741771204387 -0.4953590628698584 0 -0.23478903779224644 -0.5246162543385999 0 -0.23486866382175955 -0.5543842356460017 0 -0.23517214413228416 -0.5843703352251183 0 -0.2358395343912253 -0.6141490800107806 0 -0.23695106721811987 -0.64318497585167 0 -0.238493257840876 -0.6708917945209324 0 -0.1691957223040517 0.18196383591550888 0 -0.17054393293433448 0.16623255438529141 0 -0.17154680541706557 0.1517409799509057 0 -0.17218705759286232 0.13802892975235728 0 -0.1725143202866842 0.12466289530000031 0 -0.17262564885363496 0.11127807947278887 0 -0.1726396924517653 0.09759967560517337 0 -0.1726729614655215 0.08344403452246876 0 -0.17282341202596443 0.06870587164841187 0 -0.17316256306352296 0.05333913345574234 0 -0.1737345501892835 0.03733760587396845 0 -0.17455943883086403 0.020718708766343092 0 -0.17563834710895473 0.0035116073300286003 0 -0.17695871111299966 -0.01425064686113416 0 -0.17849882165537218 -0.032535827634062646 0 -0.18023132958337348 -0.0513150571816