# vtk DataFile Version 4.2
Tri2D3N
ASCII

DATASET UNSTRUCTURED_GRID
POINTS 1681 float
0 0 0 25 0 0 50 0 0 75 0 0 100 0 0 125 0 0 150 0 0 175 0 0 200 0 0 225 0 0 250 0 0 275 0 0 300 0 0 325 0 0 350 0 0 375 0 0 400 0 0 425 0 0 450 0 0 475 0 0 500 0 0 525 0 0 550 0 0 575 0 0 600 0 0 625 0 0 650 0 0 675 0 0 700 0 0 725 0 0 750 0 0 775 0 0 800 0 0 825 0 0 850 0 0 875 0 0 900 0 0 925 0 0 950 0 0 975 0 0 1000 0 0 0 25 0 25 25 0 50 25 0 75 25 0 100 25 0 125 25 0 150 25 0 175 25 0 200 25 0 225 25 0 250 25 0 275 25 0 300 25 0 325 25 0 350 25 0 375 25 0 400 25 0 425 25 0 450 25 0 475 25 0 500 25 0 525 25 0 550 25 0 575 25 0 600 25 0 625 25 0 650 25 0 675 25 0 700 25 0 725 25 0 750 25 0 775 25 0 800 25 0 825 25 0 850 25 0 875 25 0 900 25 0 925 25 0 950 25 0 975 25 0 1000 25 0 0 50 0 25 50 0 50 50 0 75 50 0 100 50 0 125 50 0 150 50 0 175 50 0 200 50 0 225 50 0 250 50 0 275 50 0 300 50 0 325 50 0 350 50 0 375 50 0 400 50 0 425 50 0 450 50 0 475 50 0 500 50 0 525 50 0 550 50 0 575 50 0 600 50 0 625 50 0 650 50 0 675 50 0 700 50 0 725 50 0 750 50 0 775 50 0 800 50 0 825 50 0 850 50 0 875 50 0 900 50 0 925 50 0 950 50 0 975 50 0 1000 50 0 0 75 0 25 75 0 50 75 0 75 75 0 100 75 0 125 75 0 150 75 0 175 75 0 200 75 0 225 75 0 250 75 0 275 75 0 300 75 0 325 75 0 350 75 0 375 75 0 400 75 0 425 75 0 450 75 0 475 75 0 500 75 0 525 75 0 550 75 0 575 75 0 600 75 0 625 75 0 650 75 0 675 75 0 700 75 0 725 75 0 750 75 0 775 75 0 800 75 0 825 75 0 850 75 0 875 75 0 900 75 0 925 75 0 950 75 0 975 75 0 1000 75 0 0 100 0 25 100 0 50 100 0 75 100 0 100 100 0 125 100 0 150 100 0 175 100 0 200 100 0 225 100 0 250 100 0 275 100 0 300 100 0 325 100 0 350 100 0 375 100 0 400 100 0 425 100 0 450 100 0 475 100 0 500 100 0 525 100 0 550 100 0 575 100 0 600 100 0 625 100 0 650 100 0 675 100 0 700 100 0 725 100 0 750 100 0 775 100 0 800 100 0 825 100 0 850 100 0 875 100 0 900 100 0 925 100 0 950 100 0 975 100 0 1000 100 0 0 125 0 25 125 0 50 125 0 75 125 0 100 125 0 125 125 0 150 125 0 175 125 0 200 125 0 225 125 0 250 125 0 275 125 0 300 125 0 325 125 0 350 125 0 375 125 0 400 125 0 425 125 0 450 125 0 475 125 0 500 125 0 525 125 0 550 125 0 575 125 0 600 125 0 625 125 0 650 125 0 675 125 0 700 125 0 725 125 0 750 125 0 775 125 0 800 125 0 825 125 0 850 125 0 875 125 0 900 125 0 925 125 0 950 125 0 975 125 0 1000 125 0 0 150 0 25 150 0 50 150 0 75 150 0 100 150 0 125 150 0 150 150 0 175 150 0 200 150 0 225 150 0 250 150 0 275 150 0 300 150 0 325 150 0 350 150 0 375 150 0 400 150 0 425 150 0 450 150 0 475 150 0 500 150 0 525 150 0 550 150 0 575 150 0 600 150 0 625 150 0 650 150 0 675 150 0 700 150 0 725 150 0 750 150 0 775 150 0 800 150 0 825 150 0 850 150 0 875 150 0 900 150 0 925 150 0 950 150 0 975 150 0 1000 150 0 0 175 0 25 175 0 50 175 0 75 175 0 100 175 0 125 175 0 150 175 0 175 175 0 200 175 0 225 175 0 250 175 0 275 175 0 300 175 0 325 175 0 350 175 0 375 175 0 400 175 0 425 175 0 450 175 0 475 175 0 500 175 0 525 175 0 550 175 0 575 175 0 600 175 0 625 175 0 650 175 0 675 175 0 700 175 0 725 175 0 750 175 0 775 175 0 800 175 0 825 175 0 850 175 0 875 175 0 900 175 0 925 175 0 950 175 0 975 175 0 1000 175 0 0 200 0 25 200 0 50 200 0 75 200 0 100 200 0 125 200 0 150 200 0 175 200 0 200 200 0 225 200 0 250 200 0 275 200 0 300 200 0 325 200 0 350 200 0 375 200 0 400 200 0 425 200 0 450 200 0 475 200 0 500 200 0 525 200 0 550 200 0 575 200 0 600 200 0 625 200 0 650 200 0 675 200 0 700 200 0 725 200 0 750 200 0 775 200 0 800 200 0 825 200 0 850 200 0 875 200 0 900 200 0 925 200 0 950 200 0 975 200 0 1000 200 0 0 225 0 25 225 0 50 225 0 75 225 0 100 225 0 125 225 0 150 225 0 175 225 0 200 225 0 225 225 0 250 225 0 275 225 0 300 225 0 325 225 0 350 225 0 375 225 0 400 225 0 425 225 0 450 225 0 475 225 0 500 225 0 525 225 0 550 225 0 575 225 0 600 225 0 625 225 0 650 225 0 675 225 0 700 225 0 725 225 0 750 225 0 775 225 0 800 225 0 825 225 0 850 225 0 875 225 0 900 225 0 925 225 0 950 225 0 975 225 0 1000 225 0 0 250 0 25 250 0 50 250 0 75 250 0 100 250 0 125 250 0 150 250 0 175 250 0 200 250 0 225 250 0 250 250 0 275 250 0 300 250 0 325 250 0 350 250 0 375 250 0 400 250 0 425 250 0 450 250 0 475 250 0 500 250 0 525 250 0 550 250 0 575 250 0 600 250 0 625 250 0 650 250 0 675 250 0 700 250 0 725 250 0 750 250 0 775 250 0 800 250 0 825 250 0 850 250 0 875 250 0 900 250 0 925 250 0 950 250 0 975 250 0 1000 250 0 0 275 0 25 275 0 50 275 0 75 275 0 100 275 0 125 275 0 150 275 0 175 275 0 200 275 0 225 275 0 250 275 0 275 275 0 300 275 0 325 275 0 350 275 0 375 275 0 400 275 0 425 275 0 450 275 0 475 275 0 500 275 0 525 275 0 550 275 0 575 275 0 600 275 0 625 275 0 650 275 0 675 275 0 700 275 0 725 275 0 750 275 0 775 275 0 800 275 0 825 275 0 850 275 0 875 275 0 900 275 0 925 275 0 950 275 0 975 275 0 1000 275 0 0 300 0 25 300 0 50 300 0 75 300 0 100 300 0 125 300 0 150 300 0 175 300 0 200 300 0 225 300 0 250 300 0 275 300 0 300 300 0 325 300 0 350 300 0 375 300 0 400 300 0 425 300 0 450 300 0 475 300 0 500 300 0 525 300 0 550 300 0 575 300 0 600 300 0 625 300 0 650 300 0 675 300 0 700 300 0 725 300 0 750 300 0 775 300 0 800 300 0 825 300 0 850 300 0 875 300 0 900 300 0 925 300 0 950 300 0 975 300 0 1000 300 0 0 325 0 25 325 0 50 325 0 75 325 0 100 325 0 125 325 0 150 325 0 175 325 0 200 325 0 225 325 0 250 325 0 275 325 0 300 325 0 325 325 0 350 325 0 375 325 0 400 325 0 425 325 0 450 325 0 475 325 0 500 325 0 525 325 0 550 325 0 575 325 0 600 325 0 625 325 0 650 325 0 675 325 0 700 325 0 725 325 0 750 325 0 775 325 0 800 325 0 825 325 0 850 325 0 875 325 0 900 325 0 925 325 0 950 325 0 975 325 0 1000 325 0 0 350 0 25 350 0 50 350 0 75 350 0 100 350 0 125 350 0 150 350 0 175 350 0 200 350 0 225 350 0 250 350 0 275 350 0 300 350 0 325 350 0 350 350 0 375 350 0 400 350 0 425 350 0 450 350 0 475 350 0 500 350 0 525 350 0 550 350 0 575 350 0 600 350 0 625 350 0 650 350 0 675 350 0 700 350 0 725 350 0 750 350 0 775 350 0 800 350 0 825 350 0 850 350 0 875 350 0 900 350 0 925 350 0 950 350 0 975 350 0 1000 350 0 0 375 0 25 375 0 50 375 0 75 375 0 100 375 0 125 375 0 150 375 0 175 375 0 200 375 0 225 375 0 250 375 0 275 375 0 300 375 0 325 375 0 350 375 0 375 375 0 400 375 0 425 375 0 450 375 0 475 375 0 500 375 0 525 375 0 550 375 0 575 375 0 600 375 0 625 375 0 650 375 0 675 375 0 700 375 0 725 375 0 750 375 0 775 375 0 800 375 0 825 375 0 850 375 0 875 375 0 900 375 0 925 375 0 950 375 0 975 375 0 1000 375 0 0 400 0 25 400 0 50 400 0 75 400 0 100 400 0 125 400 0 150 400 0 175 400 0 200 400 0 225 400 0 250 400 0 275 400 0 300 400 0 325 400 0 350 400 0 375 400 0 400 400 0 425 400 0 450 400 0 475 400 0 500 400 0 525 400 0 550 400 0 575 400 0 600 400 0 625 400 0 650 400 0 675 400 0 700 400 0 725 400 0 750 400 0 775 400 0 800 400 0 825 400 0 850 400 0 875 400 0 900 400 0 925 400 0 950 400 0 975 400 0 1000 400 0 0 425 0 25 425 0 50 425 0 75 425 0 100 425 0 125 425 0 150 425 0 175 425 0 200 425 0 225 425 0 250 425 0 275 425 0 300 425 0 325 425 0 350 425 0 375 425 0 400 425 0 425 425 0 450 425 0 475 425 0 500 425 0 525 425 0 550 425 0 575 425 0 600 425 0 625 425 0 650 425 0 675 425 0 700 425 0 725 425 0 750 425 0 775 425 0 800 425 0 825 425 0 850 425 0 875 425 0 900 425 0 925 425 0 950 425 0 975 425 0 1000 425 0 0 450 0 25 450 0 50 450 0 75 450 0 100 450 0 125 450 0 150 450 0 175 450 0 200 450 0 225 450 0 250 450 0 275 450 0 300 450 0 325 450 0 350 450 0 375 450 0 400 450 0 425 450 0 450 450 0 475 450 0 500 450 0 525 450 0 550 450 0 575 450 0 600 450 0 625 450 0 650 450 0 675 450 0 700 450 0 725 450 0 750 450 0 775 450 0 800 450 0 825 450 0 850 450 0 875 450 0 900 450 0 925 450 0 950 450 0 975 450 0 1000 450 0 0 475 0 25 475 0 50 475 0 75 475 0 100 475 0 125 475 0 150 475 0 175 475 0 200 475 0 225 475 0 250 475 0 275 475 0 300 475 0 325 475 0 350 475 0 375 475 0 400 475 0 425 475 0 450 475 0 475 475 0 500 475 0 525 475 0 550 475 0 575 475 0 600 475 0 625 475 0 650 475 0 675 475 0 700 475 0 725 475 0 750 475 0 775 475 0 800 475 0 825 475 0 850 475 0 875 475 0 900 475 0 925 475 0 950 475 0 975 475 0 1000 475 0 0 500 0 25 500 0 50 500 0 75 500 0 100 500 0 125 500 0 150 500 0 175 500 0 200 500 0 225 500 0 250 500 0 275 500 0 300 500 0 325 500 0 350 500 0 375 500 0 400 500 0 425 500 0 450 500 0 475 500 0 500 500 0 525 500 0 550 500 0 575 500 0 600 500 0 625 500 0 650 500 0 675 500 0 700 500 0 725 500 0 750 500 0 775 500 0 800 500 0 825 500 0 850 500 0 875 500 0 900 500 0 925 500 0 950 500 0 975 500 0 1000 500 0 0 525 0 25 525 0 50 525 0 75 525 0 100 525 0 125 525 0 150 525 0 175 525 0 200 525 0 225 525 0 250 525 0 275 525 0 300 525 0 325 525 0 350 525 0 375 525 0 400 525 0 425 525 0 450 525 0 475 525 0 500 525 0 525 525 0 550 525 0 575 525 0 600 525 0 625 525 0 650 525 0 675 525 0 700 525 0 725 525 0 750 525 0 775 525 0 800 525 0 825 525 0 850 525 0 875 525 0 900 525 0 925 525 0 950 525 0 975 525 0 1000 525 0 0 550 0 25 550 0 50 550 0 75 550 0 100 550 0 125 550 0 150 550 0 175 550 0 200 550 0 225 550 0 250 550 0 275 550 0 300 550 0 325 550 0 350 550 0 375 550 0 400 550 0 425 550 0 450 550 0 475 550 0 500 550 0 525 550 0 550 550 0 575 550 0 600 550 0 625 550 0 650 550 0 675 550 0 700 550 0 725 550 0 750 550 0 775 550 0 800 550 0 825 550 0 850 550 0 875 550 0 900 550 0 925 550 0 950 550 0 975 550 0 1000 550 0 0 575 0 25 575 0 50 575 0 75 575 0 100 575 0 125 575 0 150 575 0 175 575 0 200 575 0 225 575 0 250 575 0 275 575 0 300 575 0 325 575 0 350 575 0 375 575 0 400 575 0 425 575 0 450 575 0 475 575 0 500 575 0 525 575 0 550 575 0 575 575 0 600 575 0 625 575 0 650 575 0 675 575 0 700 575 0 725 575 0 750 575 0 775 575 0 800 575 0 825 575 0 850 575 0 875 575 0 900 575 0 925 575 0 950 575 0 975 575 0 1000 575 0 0 600 0 25 600 0 50 600 0 75 600 0 100 600 0 125 600 0 150 600 0 175 600 0 200 600 0 225 600 0 250 600 0 275 600 0 300 600 0 325 600 0 350 600 0 375 600 0 400 600 0 425 600 0 450 600 0 475 600 0 500 600 0 525 600 0 550 600 0 575 600 0 600 600 0 625 600 0 650 600 0 675 600 0 700 600 0 725 600 0 750 600 0 775 600 0 800 600 0 825 600 0 850 600 0 875 600 0 900 600 0 925 600 0 
[...]
POINT_DATA 1681

VECTORS displacement float
0 0 0 -8.181429 8.518549 0 -13.352531 10.972119 0 -17.07231 11.525911 0 -19.90181 11.238186 0 -22.152145 10.505314 0 -24.010948 9.506181 0 -25.595581 8.33214 0 -26.982012 7.0345235 0 -28.221323 5.6444974 0 -29.34915 4.182141 0 -30.391155 2.6608279 0 -31.366386 1.0897956 0 -32.289402 -0.524481 0 -33.17156 -2.1774383 0 -34.021904 -3.865826 0 -34.84781 -5.5874248 0 -35.655487 -7.340615 0 -36.450233 -9.124358 0 -37.236694 -10.938007 0 -38.01915 -12.781179 0 -38.801716 -14.653779 0 -39.588493 -16.555967 0 -40.38375 -18.4882 0 -41.19217 -20.451202 0 -42.01906 -22.44615 0 -42.87065 -24.474709 0 -43.754307 -26.539427 0 -44.67911 -28.643719 0 -45.65646 -30.792461 0 -46.70099 -32.992657 0 -47.831776 -35.254326 0 -49.07452 -37.5924 0 -50.464756 -40.02885 0 -52.053326 -42.598248 0 -53.915203 -45.356922 0 -56.16462 -48.40201 0 -58.97957 -51.911415 0 -62.63824 -56.232273 0 -67.56325 -62.074265 0 -74.404434 -70.71386 0 -13.43383 4.192521 0 -14.890989 9.397411 0 -16.622536 11.520354 0 -18.44429 12.03871 0 -20.197964 11.728415 0 -21.814688 10.962355 0 -23.28141 9.925883 0 -24.609728 8.716127 0 -25.819145 7.387027 0 -26.929785 5.9704094 0 -27.959576 4.4860663 0 -28.923733 2.946811 0 -29.834871 1.3612704 0 -30.703348 -0.2646595 0 -31.53774 -1.9268848 0 -32.345062 -3.622561 0 -33.13136 -5.3497305 0 -33.90177 -7.107021 0 -34.660812 -8.8935585 0 -35.412533 -10.708795 0 -36.160694 -12.552419 0 -36.908936 -14.424354 0 -37.66084 -16.324747 0 -38.42016 -18.253944 0 -39.19091 -20.212557 0 -39.977627 -22.201544 0 -40.78542 -24.222343 0 -41.620274 -26.277098 0 -42.48927 -28.368746 0 -43.40092 -30.501524 0 -44.36554 -32.681572 0 -45.39575 -34.91766 0 -46.50697 -37.222977 0 -47.71793 -39.617035 0 -49.050602 -42.13072 0 -50.52904 -44.814724 0 -52.174713 -47.75731 0 -53.993317 -51.122173 0 -55.941612 -55.23441 0 -57.837936 -60.804085 0 -58.884075 -70.02001 0 -18.149998 6.723345 0 -18.65055 9.926206 0 -19.217026 11.634683 0 -19.987125 12.150108 0 -20.913658 11.903414 0 -21.917698 11.1874895 0 -22.939548 10.17836 0 -23.944138 8.979138 0 -24.914482 7.650639 0 -25.844673 6.2295218 0 -26.734762 4.738511 0 -27.58785 3.1920726 0 -28.408262 1.5996723 0 -29.200624 -0.03239509 0 -29.969496 -1.6998941 0 -30.71909 -3.3999228 0 -31.453266 -5.1305413 0 -32.17555 -6.890438 0 -32.889183 -8.678765 0 -33.597244 -10.494983 0 -34.30255 -12.338831 0 -35.007893 -14.210254 0 -35.716057 -16.109344 0 -36.4299 -18.036419 0 -37.15244 -19.992004 0 -37.8869 -21.97701 0 -38.63689 -23.992739 0 -39.406284 -26.041258 0 -40.199387 -28.12539 0 -41.020954 -30.249313 0 -41.875862 -32.419197 0 -42.769028 -34.644115 0 -43.704643 -36.93786 0 -44.68471 -39.321575 0 -45.706314 -41.829273 0 -46.75651 -44.517395 0 -47.80334 -47.483204 0 -48.78194 -50.90021 0 -49.579227 -55.08485 0 -50.054413 -60.60298 0 -50.632042 -67.76153 0 -20.202198 8.759306 0 -20.514751 10.538285 0 -20.728874 11.710278 0 -21.03264 12.107872 0 -21.478842 11.887416 0 -22.049288 11.229738 0 -22.705835 10.273424 0 -23.412996 9.113033 0 -24.144424 7.810376 0 -24.88283 6.405371 0 -25.61782 4.9238462 0 -26.343872 3.3826482 0 -27.058516 1.792851 0 -27.761217 0.16183533 0 -28.452566 -1.5054728 0 -29.133764 -3.205745 0 -29.80634 -4.936771 0 -30.471987 -6.6970673 0 -31.132456 -8.485676 0 -31.78951 -10.302009 0 -32.444878 -12.145778 0 -33.1003 -14.016905 0 -33.757523 -15.91548 0 -34.41828 -17.841825 0 -35.084396 -19.796469 0 -35.75765 -21.7804 0 -36.43978 -23.795033 0 -37.13246 -25.842571 0 -37.837154 -27.926146 0 -38.55475 -30.050476 0 -39.2852 -32.222557 0 -40.02679 -34.452824 0 -40.775013 -36.75718 0 -41.52057 -39.160046 0 -42.246704 -41.699913 0 -42.92547 -44.43822 0 -43.51443 -47.472977 0 -43.958874 -50.957237 0 -44.219448 -55.10487 0 -44.39529 -60.07726 0 -44.84709 -65.68292 0 -20.995874 10.42384 0 -21.261532 11.233055 0 -21.383274 11.875326 0 -21.503698 12.066273 0 -21.703962 11.803597 0 -22.007168 11.170935 0 -22.404959 10.2591715 0 -22.87743 9.142799 0 -23.403662 7.876917 0 -23.966007 6.500373 0 -24.551048 5.0400476 0 -25.149256 3.5143142 0 -25.754234 1.9356776 0 -26.361889 0.31268173 0 -26.969767 -1.3488685 0 -27.57652 -3.0450182 0 -28.181599 -4.7730985 0 -28.784897 -6.531328 0 -29.38671 -8.318523 0 -29.987486 -10.133967 0 -30.587723 -11.977334 0 -31.188065 -13.848443 0 -31.789125 -15.74744 0 -32.391506 -17.674637 0 -32.99569 -19.630735 0 -33.602 -21.616856 0 -34.21048 -23.634684 0 -34.820717 -25.686789 0 -35.431633 -27.776888 0 -36.0411 -29.910498 0 -36.645386 -32.095806 0 -37.238445 -34.344784 0 -37.81088 -36.67536 0 -38.348778 -39.114094 0 -38.832462 -41.70064 0 -39.236496 -44.49337 0 -39.533512 -47.573902 0 -39.70857 -51.044094 0 -39.79592 -54.98984 0 -39.924675 -59.38607 0 -40.299503 -63.96192 0 -21.073847 11.796529 0 -21.318071 11.949269 0 -21.424513 12.133778 0 -21.483513 12.083551 0 -21.56936 11.725242 0 -21.7213 11.076559 0 -21.950903 10.185594 0 -22.253893 9.10314 0 -22.619087 7.8726287 0 -23.033712 6.527962 0 -23.485918 5.0944304 0 -23.96585 3.5904112 0 -24.465755 2.028992 0 -24.979797 0.41947174 0 -25.503664 -1.2316413 0 -26.034283 -2.919797 0 -26.569445 -4.641857 0 -27.107624 -6.395674 0 -27.647758 -8.179813 0 -28.189085 -9.993406 0 -28.731014 -11.836034 0 -29.273127 -13.707418 0 -29.814936 -15.607753 0 -30.35592 -17.537415 0 -30.895363 -19.497292 0 -31.432276 -21.488707 0 -31.96524 -23.513668 0 -32.49218 -25.575254 0 -33.010185 -27.677732 0 -33.515064 -29.827438 0 -34.001007 -32.0335 0 -34.460102 -34.308907 0 -34.881783 -36.672165 0 -35.25271 -39.149437 0 -35.557446 -41.77672 0 -35.78127 -44.60125 0 -35.9174 -47.6783 0 -35.98118 -51.057037 0 -36.02812 -54.74558 0 -36.157623 -58.656784 0 -36.475216 -62.55104 0 -20.697006 12.943762 0 -20.922361 12.643263 0 -21.031528 12.455307 0 -21.076805 12.167015 0 -21.115358 11.683986 0 -21.187496 10.9864 0 -21.314146 10.090499 0 -21.50171 9.025459 0 -21.747776 7.821566 0 -22.045593 6.5055213 0 -22.386902 5.0990176 0 -22.763554 3.618883 0 -23.168295 2.0777915 0 -23.594925 0.485114 0 -24.03844 -1.1523123 0 -24.49475 -2.8295813 0 -24.960638 -4.5431786 0 -25.433517 -6.2906723 0 -25.911266 -8.070394 0 -26.392143 -9.881323 0 -26.874598 -11.7229185 0 -27.357294 -13.594853 0 -27.83883 -15.497334 0 -28.317648 -17.430864 0 -28.792034 -19.396502 0 -29.25997 -21.395767 0 -29.718891 -23.431017 0 -30.165615 -25.50566 0 -30.596088 -27.6245 0 -31.005165 -29.79431 0 -31.38645 -32.0245 0 -31.732063 -34.32812 0 -32.032898 -36.722584 0 -32.279076 -39.230976 0 -32.462086 -41.881912 0 -32.578426 -44.707966 0 -32.63603 -47.738827 0 -32.662376 -50.986843 0 -32.708927 -54.42329 0 -32.842575 -57.9507 0 -33.115314 -61.38079 0 -20.00718 13.915752 0 -20.212954 13.292391 0 -20.325293 12.808529 0 -20.372646 12.30395 0 -20.3955 11.686787 0 -20.428686 10.919525 0 -20.495392 9.997632 0 -20.607643 8.933179 0 -20.769157 7.7443132 0 -20.978405 6.449917 0 -21.230972 5.066971 0 -21.521196 3.6096745 0 -21.843222 2.0893595 0 -22.191504 0.5148365 0 -22.561039 -1.1072309 0 -22.947487 -2.7718618 0 -23.347109 -4.475393 0 -23.756672 -6.2152495 0 -24.173357 -7.989577 0 -24.59468 -9.797237 0 -25.018394 -11.637586 0 -25.44233 -13.510296 0 -25.864351 -15.415591 0 -26.282145 -17.354065 0 -26.693264 -19.326923 0 -27.094894 -21.335848 0 -27.483812 -23.383419 0 -27.85619 -25.473244 0 -28.207556 -27.6103 0 -28.532684 -29.801363 0 -28.82557 -32.055477 0 -29.07967 -34.38456 0 -29.288431 -36.803623 0 -29.446512 -39.330803 0 -29.55181 -41.986 0 -29.608751 -44.787876 0 -29.632347 -47.7466 0 -29.651152 -50.853302 0 -29.705809 -54.065292 0 -29.83907 -57.29336 0 -30.075542 -60.395313 0 -19.08887 14.748538 0 -19.27479 13.887276 0 -19.386736 13.169554 0 -19.439272 12.47687 0 -19.459806 11.728743 0 -19.476002 10.881768 0 -19.509497 9.91943 0 -19.574305 8.841543 0 -19.67768 7.6563153 0 -19.82179 6.375295 0 -20.005472 5.010475 0 -20.225555 3.5728455 0 -20.477913 2.071796 0 -20.75807 0.5150167 0 -21.06157 -1.0914183 0 -21.384289 -2.7427747 0 -21.722345 -4.435498 0 -22.072237 -6.1669984 0 -22.430763 -7.935368 0 -22.794966 -9.7394085 0 -23.162115 -11.578402 0 -23.529469 -13.452074 0 -23.894318 -15.360641 0 -24.253853 -17.304766 0 -24.605103 -19.285719 0 -24.944872 -21.30526 0 -25.269594 -23.366062 0 -25.575237 -25.47169 0 -25.857403 -27.62697 0 -26.111385 -29.838198 0 -26.332222 -32.113426 0 -26.515268 -34.46261 0 -26.656797 -36.89736 0 -26.755342 -39.430424 0 -26.81345 -42.07343 0 -26.839836 -44.833878 0 -26.851248 -47.709126 0 -26.872732 -50.679436 0 -26.934263 -53.69956 0 -27.062714 -56.693497 0 -27.26902 -59.554592 0 -17.996426 15.467549 0 -18.162945 14.425487 0 -18.27094 13.522208 0 -18.327303 12.669685 0 -18.3501 11.800507 0 -18.360294 10.871654 0 -18.376425 9.860607 0 -18.4123 8.759177 0 -18.476683 7.568001 0 -18.574026 6.2924128 0 -18.705507 4.9397025 0 -18.870024 3.5175133 0 -19.065105 2.0329864 0 -19.287455 0.49232608 0 -19.533445 -1.0992839 0 -19.799362 -2.7376823 0 -20.081572 -4.419591 0 -20.376564 -6.1425843 0 -20.681013 -7.9048233 0 -20.991726 -9.705112 0 -21.305641 -11.542764 0 -21.619722 -13.417527 0 -21.93094 -15.329607 0 -22.236183 -17.279707 0 -22.532255 -19.269043 0 -22.81575 -21.299393 0 -23.083029 -23.37335 0 -23.33028 -25.494215 0 -23.55355 -27.666323 0 -23.748905 -29.895102 0 -23.91272 -32.18713 0 -24.042217 -34.549953 0 -24.136103 -36.991615 0 -24.195755 -39.51955 0 -24.226429 -42.138622 0 -24.238327 -44.84837 0 -24.247234 -47.638405 0 -24.273464 -50.48439 0 -24.338526 -53.3434 0 -24.459211 -56.15247 0 -24.639727 -58.8309 0 -16.7672 16.090807 0 -16.915142 14.907796 0 -17.016563 13.856209 0 -17.074234 12.869502 0 -17.099916 11.892146 0 -17.109085 10.884332 0 -17.116823 9.8212805 0 -17.13561 8.690001 0 -17.17442 7.4857264 0 -17.23882 6.208852 0 -17.331446 4.862558 0 -17.452751 3.451343 0 -17.601616 1.9800172 0 -17.775883 0.45315477 0 -17.972755 -1.1251961 0 -18.189146 -2.7516038 0 -18.421732 -4.4232864 0 -18.667229 -6.138092 0 -18.92239 -7.8943634 0 -19.183983 -9.690999 0 -19.448841 -11.527398 0 -19.713829 -13.403304 0 -19.97577 -15.318935 0 -20.231493 -17.274942 0 -20.477705 -19.272507 0 -20.711052 -21.313276 0 -20.928106 -23.399546 0 -21.125427 -25.534178 0 -21.299675 -27.720825 0 -21.44784 -29.963736 0 -21.567562 -32.267784 0 -21.657621 -34.63802 0 -21.718567 -37.079002 0 -21.753515 -39.59371 0 -21.768856 -42.18185 0 -21.774706 -44.837547 0 -21.784763 -47.546234 0 -21.814857 -50.28237 0 -21.880224 -53.00714 0 -21.991325 -55.66873 0 -22.149246 -58.20489 0 -15.428224 16.631226 0 -15.558538 15.336254 0 -15.651653 14.165224 0 -15.7082405 13.066639 0 -15.735877 11.994752 0 -15.745806 10.913875 0 -15.749976 9.799125 0 -15.759061 8.634907 0 -15.78145 7.412827 0 -15.822981 6.129526 0 -15.887114 4.784829 0 -15.975312 3.3804317 0 -16.087486 1.9189379 0 -16.222406 0.40325445 0 -16.378054 -1.1637815 0 -16.551926 -2.779621 0 -16.741192 -4.4420605 0 -16.94288 -6.1493397 0 -17.153934 -7.9000745 0 -17.371258 -9.693307 0 -17.59174 -11.528578 0 -17.812296 -13.40563 0 -18.029808 -15.324658 0 -18.241123 -17.286278 0 -18.443146 -19.291504 0 -18.632666 -21.341791 0 -18.806599 -23.439035 0 -18.961996 -25.5855 0 -19.096195 -27.783983 0 -19.207058 -30.037453 0 -19.293324 -32.34896 0 -19.354898 -34.72128 0 -19.393522 -37.15587 0 -19.413168 -39.652157 0 -19.420374 -42.206066 0 -19.424314 -44.808422 0 -19.436316 -47.442574 0 -19.468493 -50.08355 0 -19.531599 -52.696926 0 -19.632223 -55.239746 0 -19.769941 -57.662914 0 -14.000132 17.098192 0 -14.113733 15.7132015 0 -14.197464 14.445478 0 -14.250978 13.254066 0 -14.279156 12.100929 0 -14.290095 10.954466 0 -14.29305 9.790735 0 -14.2968445 8.593003 0 -14.30891 7.3505692 0 -14.334849 6.0573635 0 -14.378416 4.710553 0 -14.441609 3.3094568 0 -14.5250435 1.8546994 0 -14.62819 0.3476017 0 -14.74969 -1.2102097 0 -14.887626 -2.817086 0 -15.039618 -4.4714994 0 -15.203115 -6.1721277 0 -15.375308 -7.9179263 0 -15.5533695 -9.7081375 0 -15.734365 -11.542406 0 -15.91538 -13.420548 0 -16.093462 -15.342729 0 -16.265661 -17.309446 0 -16.429085 -19.32154 0 -16.58087 -21.380177 0 -16.71838 -23.486742 0 -16.839163 -25.642912 0 -16.941168 -27.850487 0 -17.02304 -30.11114 0 -17.084274 -32.426296 0 -17.125622 -34.79657 0 -17.149387 -37.22095 0 -17.159771 -39.69611 0 -17.1629 -42.21543 0 -17.166695 -44.7676 0 -17.18026 -47.33533 0 -17.212757 -49.894985 0 -17.27175 -52.416145 0 -17.361399 -54.86275 0 -17.480692 -57.195156 0 -12.499242 17.498653 0 -12.596931 16.040882 0 -12.670631 14.694766 0 -12.719572 13.426786 0 -12.746883 12.204821 0 -12.758365 11.000893 0 -12.7610855 9.792462 0 -12.762163 8.5625105 0 -12.767918 7.298963 0 -12.783436 5.9938884 0 -12.812352 4.642388 0 -12.856904 3.2418683 0 -12.918085 1.7912238 0 -12.995894 0.29036918 0 -13.089482 -1.2602189 0 -13.197405 -2.8597815 0 -13.317752 -4.5074596 0 -13.448358 -6.2024207 0 -13.586769 -7.9439707 0 -13.730435 -9.731602 0 -13.876738 -11.565029 0 -14.023012 -13.4441595 0 -14.166573 -15.369135 0 -14.30477 -17.340326 0 -14.435006 -19.358345 0 -14.554832 -21.424004 0 -14.661976 -23.53825 0 -14.754505 -25.70202 0 -14.830984 -27.916145 0 -14.890596 -30.181164 0 -14.933383 -32.496975 0 -14.960569 -34.862385 0 -14.974668 -37.274426 0 -14.979643 -39.72778 0 -14.980916 -42.214043 0 -14.985121 -44.72072 0 -14.99941 -47.230587 0 -15.030651 -49.721645 0 -15.0841875 -52.166836 0 -15.16267 -54.535343 0 -15.264904 -56.794395 0 -10.938899 17.837791 0 -11.021365 16.321281 0 -11.084668 14.91186 0 -11.127937 13.581273 0 -11.153158 12.301893 0 -11.164481 11.048778 0 -11.167227 9.800858 0 -11.167028 8.541301 0 -11.169093 7.257322 0 -11.177797 5.939687 0 -11.19645 4.581995 0 -11.227264 3.1801229 0 -11.2714205 1.7315551 0 -11.329224 0.23497052 0 -11.400193 -1.310192 0 -11.483281 -2.903996 0 -11.57702 -4.5462074 0 -11.679572 -6.236502 0 -11.788887 -7.974526 0 -11.902767 -9.759991 0 -12.018918 -11.592745 0 -12.135005 -13.472746 0 -12.248661 -15.400134 0 -12.357596 -17.375109 0 -12.459597 -19.398035 0 -12.552575 -21.469458 0 -12.634698 -23.589743 0 -12.704483 -25.75919 0 -12.760913 -27.977758 0 -12.803613 -30.244926 0 -12.833009 -32.559246 0 -12.850441 -34.918194 0 -12.858364 -37.3172 0 -12.860329 -39.749516 0 -12.86093 -42.20558 0 -12.865493 -44.67236 0 -12.8796015 -47.13293 0 -12.908356 -49.56693 0 -12.955528 -51.950027 0 -13.022797 -54.255436 0 -13.109 -56.45537 0 -9.330393 18.119495 0 -9.398193 16.556065 0 -9.450915 15.096099 0 -9.487714 13.715074 0 -9.509865 12.388731 0 -9.520303 11.094569 0 -9.522994 9.812894 0 -9.522265 8.527276 0 -9.522284 7.224592 0 -9.52667 5.8947654 0 -9.538275 4.5303197 0 -9.559119 3.1259491 0 -9.590386 1.6780057 0 -9.632506 0.18412481 0 -9.685275 -1.357129 0 -9.747957 -2.9465463 0 -9.819405 -4.584492 0 -9.89819 -6.271065 0 -9.9826145 -8.006239 0 -10.070847 -9.789963 0 -10.160948 -11.622201 0 -10.250958 -13.502965 0 -10.338896 -15.432343 0 -10.422836 -17.410395 0 -10.500942 -19.437271 0 -10.571517 -21.513231 0 -10.63315 -23.638077 0 -10.684713 -25.811604 0 -10.725555 -28.032927 0 -10.755571 -30.300648 0 -10.775332 -32.61224 0 -10.786174 -34.964115 0 -10.790309 -37.350525 0 -10.790747 -39.76369 0 -10.791213 -42.19333 0 -10.795897 -44.62615 0 -10.809013 -47.045815 0 -10.83434 -49.433216 0 -10.874531 -51.76629 0 -10.930627 -54.021286 0 -11.001583 -56.17402 0 -7.6835513 18.346703 0 -7.7371254 16.7466 0 -7.7791543 15.2471285 0 -7.8089275 13.826457 0 -7.827246 12.462773 0 -7.836163 11.135481 0 -7.838552 9.826041 0 -7.8376546 8.518505 0 -7.8366733 7.1996336 0 -7.838464 5.858833 0 -7.8453484 4.487858 0 -7.8590384 3.0805123 0 -7.880586 1.6322789 0 -7.910465 0.13996536 0 -7.948612 -1.3985922 0 -7.994523 -2.9848075 0 -8.047348 -4.6195297 0 -8.105982 -6.303251 0 -8.169132 -8.036217 0 -8.235279 -9.818621 0 -8.302902 -11.650492 0 -8.370415 -13.531881 0 -8.436235 -15.46282 0 -8.498825 -17.4433 0 -8.556723 -19.473248 0 -8.608626 -21.552618 0 -8.653473 -23.680809 0 -8.690472 -25.857077 0 -8.719214 -28.079939 0 -8.739749 -30.347229 0 -8.7526655 -32.65564 0 -8.759184 -35.000584 0 -8.761133 -37.37567 0 -8.760933 -39.772358 0 -8.761485 -42.17989 0 -8.765952 -44.58495 0 -8.777433 -46.97172 0 -8.79863 -49.322147 0 -8.831412 -51.615925 0 -8.876387 -53.83155 0 -8.932706 -55.947388 0 -6.007096 18.521585 0 -6.0467825 16.893951 0 -6.078079 15.364804 0 -6.1004405 13.914239 0 -6.114361 12.522157 0 -6.121227 11.169374 0 -6.1230507 9.838289 0 -6.1221285 8.51337 0 -6.1207914 7.1813912 0 -6.121154 5.831466 0 -6.1249743 4.4548035 0 -6.13357 3.0445774 0 -6.1477947 1.5956227 0 -6.1680584 0.104115665 0 -6.1943707 -1.4326783 0 -6.2264023 -3.016654 0 -6.263557 -4.6490574 0 -6.305014 -6.3306937 0 -6.34979 -8.062071 0 -6.3967953 -9.843495 0 -6.4448657 -11.675117 0 -6.492822 -13.556998 0 -6.539474 -15.489128 0 -6.5836678 -17.471437 0 -6.6243267 -19.50368 0 -6.6605344 -21.585474 0 -6.6915374 -23.715967 0 -6.7167897 -25.893984 0 -6.7360654 -28.117556 0 -6.749495 -30.383934 0 -6.757591 -32.689255 0 -6.761339 -35.028202 0 -6.762157 -37.393852 0 -6.76185 -39.777233 0 -6.7625384 -42.16733 0 -6.766463 -44.550884 0 -6.775791 -46.912476 0 -6.7923913 -49.23485 0 -6.817492 -51.499023 0 -6.8514347 -53.685123 0 -6.893578 -55.773247 0 -4.309029 18.645712 0 -4.335056 16.998901 0 -4.355598 15.449113 0 -4.3702826 13.977629 0 -4.379409 12.565562 0 -4.38384 11.194701 0 -4.3848567 9.848108 0 -4.3839526 8.510598 0 -4.3826485 7.168999 0 -4.3823466 5.8122463 0 -4.3842254 4.4312096 0 -4.389174 3.0186403 0 -4.3977833 1.5689139 0 -4.410342 0.07776505 0 -4.426875 -1.4579442 0 -4.447173 -3.040456 0 -4.470841 -4.671316 0 -4.497331 -6.3515615 0 -4.5259914 -8.081868 0 -4.556087 -9.862659 0 -4.586858 -11.694128 0 -4.617502 -13.576383 0 -4.6472344 -15.509383 0 -4.6752973 -17.492958 0 -4.7009954 -19.52674 0 -4.7237296 -21.610163 0 -4.7430243 -23.742144 0 -4.7585745 -25.921185 0 -4.7702827 -28.144958 0 -4.7782598 -30.410402 0 -4.782919 -32.713127 0 -4.7849526 -35.047443 0 -4.785323 -37.40603 0 -4.7852182 -39.779663 0 -4.786012 -42.157196 0 -4.7891316 -44.525448 0 -4.795941 -46.869293 0 -4.807602 -49.172005 0 -4.8248487 -51.415573 0 -4.8478336 -53.581135 0 -4.876133 -55.649963 0 -2.5968175 18.720135 0 -2.6093302 17.062008 0 -2.6190906 15.500013 0 -2.6259322 14.016113 0 -2.6299973 12.592106 0 -2.6317308 11.210388 0 -2.631777 9.854439 0 -2.630889 8.509275 0 -2.6298401 7.1617994 0 -2.6293478 5.800833 0 -2.6299953 4.4170666 0 -2.632227 3.0030003 0 -2.6363287 1.5527334 0 -2.6424327 0.06173465 0 -2.6505356 -1.4733809 0 -2.660516 -3.0550706 0 -2.6721547 -4.685062 0 -2.6851711 -6.364524 0 -2.699225 -8.094248 0 -2.7139385 -9.8747015 0 -2.7289188 -11.706134 0 -2.7437682 -13.588654 0 -2.7580993 -15.522188 0 -2.7715483 -17.506521 0 -2.7837734 -19.541204 0 -2.7944927 -21.625568 0 -2.803503 -23.75837 0 -2.8106859 -25.937906 0 -2.8160255 -28.161674 0 -2.8196206 -30.42635 0 -2.8217034 -32.727333 0 -2.8226507 -35.05868 0 -2.8229449 -37.412888 0 -2.8231986 -39.780582 0 -2.824061 -42.15055 0 -2.8262053 -44.50968 0 -2.8302732 -46.84298 0 -2.8368046 -49.134075 0 -2.8460832 -51.365555 0 -2.8581727 -53.51904 0 -2.8728366 -55.576515 0 -0.8776019 18.745472 0 -0.8766534 17.0836 0 -0.875613 15.517523 0 -0.87450594 14.029401 0 -0.87337685 12.60131 0 -0.8722725 11.215844 0 -0.87125206 9.856651 0 -0.8703749 8.508846 0 -0.8697033 7.1593885 0 -0.8692533 5.797014 0 -0.86902875 4.4123626 0 -0.8690098 2.9978347 0 -0.86916447 1.547429 0 -0.86944276 0.056512315 0 -0.8697964 -1.4783896 0 -0.87017274 -3.0598125 0 -0.87052625 -4.6895385 0 -0.87081665 -6.3687835 0 -0.8710128 -8.098374 0 -0.8710948 -9.878791 0 -0.87105185 -11.710281 0 -0.87087643 -13.592953 0 -0.87057847 -15.526719 0 -0.8701713 -17.511356 0 -0.8696656 -19.546392 0 -0.86910576 -21.631035 0 -0.86853206 -23.76407 0 -0.8679929 -25.94371 0 -0.8675496 -28.167387 0 -0.8672499 -30.431688 0 -0.86714464 -32.731983 0 -0.86727536 -35.062256 0 -0.8676793 -37.41487 0 -0.8683404 -39.78055 0 -0.8692463 -42.14803 0 -0.8703331 -44.50418 0 -0.87156147 -46.834034 0 -0.8728251 -49.121407 0 -0.87411547 -51.34896 0 -0.87536347 -53.49849 0 -0.8765103 -55.552208 0 0.8416336 18.721905 0 0.85607004 17.06379 0 0.8679487 15.5016365 0 0.877032 14.0174 0 0.88339096 12.59298 0 0.8873562 11.210832 0