# vtk DataFile Version 4.2
Quad2D4N
ASCII

DATASET UNSTRUCTURED_GRID
POINTS 1681 double
0 0 0 25 0 0 50 0 0 75 0 0 100 0 0 125 0 0 150 0 0 175 0 0 200 0 0 225 0 0 250 0 0 275 0 0 300 0 0 325 0 0 350 0 0 375 0 0 400 0 0 425 0 0 450 0 0 475 0 0 500 0 0 525 0 0 550 0 0 575 0 0 600 0 0 625 0 0 650 0 0 675 0 0 700 0 0 725 0 0 750 0 0 775 0 0 800 0 0 825 0 0 850 0 0 875 0 0 900 0 0 925 0 0 950 0 0 975 0 0 1000 0 0 0 25 0 25 25 0 50 25 0 75 25 0 100 25 0 125 25 0 150 25 0 175 25 0 200 25 0 225 25 0 250 25 0 275 25 0 300 25 0 325 25 0 350 25 0 375 25 0 400 25 0 425 25 0 450 25 0 475 25 0 500 25 0 525 25 0 550 25 0 575 25 0 600 25 0 625 25 0 650 25 0 675 25 0 700 25 0 725 25 0 750 25 0 775 25 0 800 25 0 825 25 0 850 25 0 875 25 0 900 25 0 925 25 0 950 25 0 975 25 0 1000 25 0 0 50 0 25 50 0 50 50 0 75 50 0 100 50 0 125 50 0 150 50 0 175 50 0 200 50 0 225 50 0 250 50 0 275 50 0 300 50 0 325 50 0 350 50 0 375 50 0 400 50 0 425 50 0 450 50 0 475 50 0 500 50 0 525 50 0 550 50 0 575 50 0 600 50 0 625 50 0 650 50 0 675 50 0 700 50 0 725 50 0 750 50 0 775 50 0 800 50 0 825 50 0 850 50 0 875 50 0 900 50 0 925 50 0 950 50 0 975 50 0 1000 50 0 0 75 0 25 75 0 50 75 0 75 75 0 100 75 0 125 75 0 150 75 0 175 75 0 200 75 0 225 75 0 250 75 0 275 75 0 300 75 0 325 75 0 350 75 0 375 75 0 400 75 0 425 75 0 450 75 0 475 75 0 500 75 0 525 75 0 550 75 0 575 75 0 600 75 0 625 75 0 650 75 0 675 75 0 700 75 0 725 75 0 750 75 0 775 75 0 800 75 0 825 75 0 850 75 0 875 75 0 900 75 0 925 75 0 950 75 0 975 75 0 1000 75 0 0 100 0 25 100 0 50 100 0 75 100 0 100 100 0 125 100 0 150 100 0 175 100 0 200 100 0 225 100 0 250 100 0 275 100 0 300 100 0 325 100 0 350 100 0 375 100 0 400 100 0 425 100 0 450 100 0 475 100 0 500 100 0 525 100 0 550 100 0 575 100 0 600 100 0 625 100 0 650 100 0 675 100 0 700 100 0 725 100 0 750 100 0 775 100 0 800 100 0 825 100 0 850 100 0 875 100 0 900 100 0 925 100 0 950 100 0 975 100 0 1000 100 0 0 125 0 25 125 0 50 125 0 75 125 0 100 125 0 125 125 0 150 125 0 175 125 0 200 125 0 225 125 0 250 125 0 275 125 0 300 125 0 325 125 0 350 125 0 375 125 0 400 125 0 425 125 0 450 125 0 475 125 0 500 125 0 525 125 0 550 125 0 575 125 0 600 125 0 625 125 0 650 125 0 675 125 0 700 125 0 725 125 0 750 125 0 775 125 0 800 125 0 825 125 0 850 125 0 875 125 0 900 125 0 925 125 0 950 125 0 975 125 0 1000 125 0 0 150 0 25 150 0 50 150 0 75 150 0 100 150 0 125 150 0 150 150 0 175 150 0 200 150 0 225 150 0 250 150 0 275 150 0 300 150 0 325 150 0 350 150 0 375 150 0 400 150 0 425 150 0 450 150 0 475 150 0 500 150 0 525 150 0 550 150 0 575 150 0 600 150 0 625 150 0 650 150 0 675 150 0 700 150 0 725 150 0 750 150 0 775 150 0 800 150 0 825 150 0 850 150 0 875 150 0 900 150 0 925 150 0 950 150 0 975 150 0 1000 150 0 0 175 0 25 175 0 50 175 0 75 175 0 100 175 0 125 175 0 150 175 0 175 175 0 200 175 0 225 175 0 250 175 0 275 175 0 300 175 0 325 175 0 350 175 0 375 175 0 400 175 0 425 175 0 450 175 0 475 175 0 500 175 0 525 175 0 550 175 0 575 175 0 600 175 0 625 175 0 650 175 0 675 175 0 700 175 0 725 175 0 750 175 0 775 175 0 800 175 0 825 175 0 850 175 0 875 175 0 900 175 0 925 175 0 950 175 0 975 175 0 1000 175 0 0 200 0 25 200 0 50 200 0 75 200 0 100 200 0 125 200 0 150 200 0 175 200 0 200 200 0 225 200 0 250 200 0 275 200 0 300 200 0 325 200 0 350 200 0 375 200 0 400 200 0 425 200 0 450 200 0 475 200 0 500 200 0 525 200 0 550 200 0 575 200 0 600 200 0 625 200 0 650 200 0 675 200 0 700 200 0 725 200 0 750 200 0 775 200 0 800 200 0 825 200 0 850 200 0 875 200 0 900 200 0 925 200 0 950 200 0 975 200 0 1000 200 0 0 225 0 25 225 0 50 225 0 75 225 0 100 225 0 125 225 0 150 225 0 175 225 0 200 225 0 225 225 0 250 225 0 275 225 0 300 225 0 325 225 0 350 225 0 375 225 0 400 225 0 425 225 0 450 225 0 475 225 0 500 225 0 525 225 0 550 225 0 575 225 0 600 225 0 625 225 0 650 225 0 675 225 0 700 225 0 725 225 0 750 225 0 775 225 0 800 225 0 825 225 0 850 225 0 875 225 0 900 225 0 925 225 0 950 225 0 975 225 0 1000 225 0 0 250 0 25 250 0 50 250 0 75 250 0 100 250 0 125 250 0 150 250 0 175 250 0 200 250 0 225 250 0 250 250 0 275 250 0 300 250 0 325 250 0 350 250 0 375 250 0 400 250 0 425 250 0 450 250 0 475 250 0 500 250 0 525 250 0 550 250 0 575 250 0 600 250 0 625 250 0 650 250 0 675 250 0 700 250 0 725 250 0 750 250 0 775 250 0 800 250 0 825 250 0 850 250 0 875 250 0 900 250 0 925 250 0 950 250 0 975 250 0 1000 250 0 0 275 0 25 275 0 50 275 0 75 275 0 100 275 0 125 275 0 150 275 0 175 275 0 200 275 0 225 275 0 250 275 0 275 275 0 300 275 0 325 275 0 350 275 0 375 275 0 400 275 0 425 275 0 450 275 0 475 275 0 500 275 0 525 275 0 550 275 0 575 275 0 600 275 0 625 275 0 650 275 0 675 275 0 700 275 0 725 275 0 750 275 0 775 275 0 800 275 0 825 275 0 850 275 0 875 275 0 900 275 0 925 275 0 950 275 0 975 275 0 1000 275 0 0 300 0 25 300 0 50 300 0 75 300 0 100 300 0 125 300 0 150 300 0 175 300 0 200 300 0 225 300 0 250 300 0 275 300 0 300 300 0 325 300 0 350 300 0 375 300 0 400 300 0 425 300 0 450 300 0 475 300 0 500 300 0 525 300 0 550 300 0 575 300 0 600 300 0 625 300 0 650 300 0 675 300 0 700 300 0 725 300 0 750 300 0 775 300 0 800 300 0 825 300 0 850 300 0 875 300 0 900 300 0 925 300 0 950 300 0 975 300 0 1000 300 0 0 325 0 25 325 0 50 325 0 75 325 0 100 325 0 125 325 0 150 325 0 175 325 0 200 325 0 225 325 0 250 325 0 275 325 0 300 325 0 325 325 0 350 325 0 375 325 0 400 325 0 425 325 0 450 325 0 475 325 0 500 325 0 525 325 0 550 325 0 575 325 0 600 325 0 625 325 0 650 325 0 675 325 0 700 325 0 725 325 0 750 325 0 775 325 0 800 325 0 825 325 0 850 325 0 875 325 0 900 325 0 925 325 0 950 325 0 975 325 0 1000 325 0 0 350 0 25 350 0 50 350 0 75 350 0 100 350 0 125 350 0 150 350 0 175 350 0 200 350 0 225 350 0 250 350 0 275 350 0 300 350 0 325 350 0 350 350 0 375 350 0 400 350 0 425 350 0 450 350 0 475 350 0 500 350 0 525 350 0 550 350 0 575 350 0 600 350 0 625 350 0 650 350 0 675 350 0 700 350 0 725 350 0 750 350 0 775 350 0 800 350 0 825 350 0 850 350 0 875 350 0 900 350 0 925 350 0 950 350 0 975 350 0 1000 350 0 0 375 0 25 375 0 50 375 0 75 375 0 100 375 0 125 375 0 150 375 0 175 375 0 200 375 0 225 375 0 250 375 0 275 375 0 300 375 0 325 375 0 350 375 0 375 375 0 400 375 0 425 375 0 450 375 0 475 375 0 500 375 0 525 375 0 550 375 0 575 375 0 600 375 0 625 375 0 650 375 0 675 375 0 700 375 0 725 375 0 750 375 0 775 375 0 800 375 0 825 375 0 850 375 0 875 375 0 900 375 0 925 375 0 950 375 0 975 375 0 1000 375 0 0 400 0 25 400 0 50 400 0 75 400 0 100 400 0 125 400 0 150 400 0 175 400 0 200 400 0 225 400 0 250 400 0 275 400 0 300 400 0 325 400 0 350 400 0 375 400 0 400 400 0 425 400 0 450 400 0 475 400 0 500 400 0 525 400 0 550 400 0 575 400 0 600 400 0 625 400 0 650 400 0 675 400 0 700 400 0 725 400 0 750 400 0 775 400 0 800 400 0 825 400 0 850 400 0 875 400 0 900 400 0 925 400 0 950 400 0 975 400 0 1000 400 0 0 425 0 25 425 0 50 425 0 75 425 0 100 425 0 125 425 0 150 425 0 175 425 0 200 425 0 225 425 0 250 425 0 275 425 0 300 425 0 325 425 0 350 425 0 375 425 0 400 425 0 425 425 0 450 425 0 475 425 0 500 425 0 525 425 0 550 425 0 575 425 0 600 425 0 625 425 0 650 425 0 675 425 0 700 425 0 725 425 0 750 425 0 775 425 0 800 425 0 825 425 0 850 425 0 875 425 0 900 425 0 925 425 0 950 425 0 975 425 0 1000 425 0 0 450 0 25 450 0 50 450 0 75 450 0 100 450 0 125 450 0 150 450 0 175 450 0 200 450 0 225 450 0 250 450 0 275 450 0 300 450 0 325 450 0 350 450 0 375 450 0 400 450 0 425 450 0 450 450 0 475 450 0 500 450 0 525 450 0 550 450 0 575 450 0 600 450 0 625 450 0 650 450 0 675 450 0 700 450 0 725 450 0 750 450 0 775 450 0 800 450 0 825 450 0 850 450 0 875 450 0 900 450 0 925 450 0 950 450 0 975 450 0 1000 450 0 0 475 0 25 475 0 50 475 0 75 475 0 100 475 0 125 475 0 150 475 0 175 475 0 200 475 0 225 475 0 250 475 0 275 475 0 300 475 0 325 475 0 350 475 0 375 475 0 400 475 0 425 475 0 450 475 0 475 475 0 500 475 0 525 475 0 550 475 0 575 475 0 600 475 0 625 475 0 650 475 0 675 475 0 700 475 0 725 475 0 750 475 0 775 475 0 800 475 0 825 475 0 850 475 0 875 475 0 900 475 0 925 475 0 950 475 0 975 475 0 1000 475 0 0 500 0 25 500 0 50 500 0 75 500 0 100 500 0 125 500 0 150 500 0 175 500 0 200 500 0 225 500 0 250 500 0 275 500 0 300 500 0 325 500 0 350 500 0 375 500 0 400 500 0 425 500 0 450 500 0 475 500 0 500 500 0 525 500 0 550 500 0 575 500 0 600 500 0 625 500 0 650 500 0 675 500 0 700 500 0 725 500 0 750 500 0 775 500 0 800 500 0 825 500 0 850 500 0 875 500 0 900 500 0 925 500 0 950 500 0 975 500 0 1000 500 0 0 525 0 25 525 0 50 525 0 75 525 0 100 525 0 125 525 0 150 525 0 175 525 0 200 525 0 225 525 0 250 525 0 275 525 0 300 525 0 325 525 0 350 525 0 375 525 0 400 525 0 425 525 0 450 525 0 475 525 0 500 525 0 525 525 0 550 525 0 575 525 0 600 525 0 625 525 0 650 525 0 675 525 0 700 525 0 725 525 0 750 525 0 775 525 0 800 525 0 825 525 0 850 525 0 875 525 0 900 525 0 925 525 0 950 525 0 975 525 0 1000 525 0 0 550 0 25 550 0 50 550 0 75 550 0 100 550 0 125 550 0 150 550 0 175 550 0 200 550 0 225 550 0 250 550 0 275 550 0 300 550 0 325 550 0 350 550 0 375 550 0 400 550 0 425 550 0 450 550 0 475 550 0 500 550 0 525 550 0 550 550 0 575 550 0 600 550 0 625 550 0 650 550 0 675 550 0 700 550 0 725 550 0 750 550 0 775 550 0 800 550 0 825 550 0 850 550 0 875 550 0 900 550 0 925 550 0 950 550 0 975 550 0 1000 550 0 0 575 0 25 575 0 50 575 0 75 575 0 100 575 0 125 575 0 150 575 0 175 575 0 200 575 0 225 575 0 250 575 0 275 575 0 300 575 0 325 575 0 350 575 0 375 575 0 400 575 0 425 575 0 450 575 0 475 575 0 500 575 0 525 575 0 550 575 0 575 575 0 600 575 0 625 575 0 650 575 0 675 575 0 700 575 0 725 575 0 750 575 0 775 575 0 800 575 0 825 575 0 850 575 0 875 575 0 900 575 0 925 575 0 950 575 0 975 575 0 1000 575 0 0 600 0 25 600 0 50 600 0 75 600 0 100 600 0 125 600 0 150 600 0 175 600 0 200 600 0 225 600 0 250 600 0 275 600 0 300 600 0 325 600 0 350 600 0 375 600 0 400 600 0 425 600 0 450 600 0 475 600 0 500 600 0 525 600 0 550 600 0 575 600 0 600 600 0 625 600 0 650 600 0 675 600 0 700 600 0 725 600 0 750 600 0 775 600 0 800 600 0 825 600 0 850 600 0 875 600 0 900 600 0 925 600 
[...]
POINT_DATA 1681

VECTORS displacement double
0 0 0 -0.11034817630343603 0.10351040047749482 0 -0.17393183959941466 0.12264875192754243 0 -0.21400656505873494 0.12395000954838568 0 -0.2428115264206064 0.11773717143445346 0 -0.26530232535217496 0.1075451714602351 0 -0.28380393518451735 0.09486740908754951 0 -0.29958175217565686 0.08050046851466201 0 -0.3134038740699266 0.0649145860901615 0 -0.32577366566316984 0.04840713017468851 0 -0.3370397616126705 0.031174535521779585 0 -0.3474538792314512 0.013350485329063274 0 -0.35720375816878025 -0.004972215230208224 0 -0.3664331673056353 -0.023728325754918508 0 -0.3752547221495786 -0.04287167828054512 0 -0.3837584882328084 -0.06236955887424469 0 -0.3920180091830297 -0.08219888923180237 0 -0.40009470968232935 -0.10234358790263344 0 -0.4080412507424669 -0.12279273954008867 0 -0.4159042048308577 -0.14353934413974417 0 -0.4237262971937705 -0.1645795054312168 0 -0.4315483895566825 -0.18591197385912833 0 -0.439411343645073 -0.20753799897885655 0 -0.4473578847052104 -0.2294614770607853 0 -0.4554345852045099 -0.25168940810933793 0 -0.463694106154731 -0.27423270747116424 0 -0.4721978722379607 -0.29710745659684884 0 -0.481019427081904 -0.3203367337906062 0 -0.490248836218759 -0.3439532529852795 0 -0.4999987151560882 -0.3680031821453918 0 -0.5104128327748692 -0.39255176167205974 0 -0.5216789287243702 -0.4176917967385353 0 -0.5340487203176134 -0.4435569705424471 0 -0.5478708422118832 -0.47034371783733153 0 -0.5636486592030231 -0.4983494069838293 0 -0.5821502690353659 -0.5280442743305288 0 -0.6046410679669353 -0.5602249040756959 0 -0.6334460293288078 -0.59638469568115 0 -0.6735207547881292 -0.6400585830213811 0 -0.7371044180841091 -0.7015695641908178 0 -0.8474525943875449 -0.8474525943877147 0 -0.18427446655910776 0.03900753279610488 0 -0.18269912008274336 0.11138281842925637 0 -0.19896209911689527 0.13096509025135827 0 -0.22038321935339308 0.13107955432574153 0 -0.24021464101324705 0.12380420688367008 0 -0.25765013514102775 0.11274522952867261 0 -0.2729704117894051 0.09940208085463485 0 -0.28658775023165267 0.08452443857987511 0 -0.29885729630913843 0.06854325115220561 0 -0.31005974817482435 0.0517267615493305 0 -0.3204136722549856 0.03425060165935348 0 -0.33009010672913297 0.016233515906742532 0 -0.3392243701739294 -0.002242568250890883 0 -0.34792490283028926 -0.021120448906651837 0 -0.3562797975099999 -0.04035996981112846 0 -0.3643616686419893 -0.05993294378231043 0 -0.37223135370077676 -0.07981969902924389 0 -0.3799407999958217 -0.10000668779325919 0 -0.3875353857246641 -0.12048482354979323 0 -0.39505585286598754 -0.14124834257903882 0 -0.4025399823340782 -0.16229406395009674 0 -0.41002411180216874 -0.18362097229842309 0 -0.4175445789434918 -0.20523008298856119 0 -0.42513916467233415 -0.227124576951411 0 -0.43284861096737887 -0.2493102179067795 0 -0.4407182960261661 -0.27179609237923014 0 -0.44880016715815524 -0.2945957481274321 0 -0.45715506183786603 -0.3177288569423395 0 -0.4658555944942258 -0.341223606005962 0 -0.47498985793902226 -0.36512015156771255 0 -0.4846662924131696 -0.3894756955344858 0 -0.495020216493331 -0.4143721653638932 0 -0.5062226683590167 -0.439928305480403 0 -0.5184922144365024 -0.46631974777211843 0 -0.5321095528787501 -0.4938147352167437 0 -0.5474298295271278 -0.522844216262091 0 -0.5648653236549087 -0.5541578686264791 0 -0.5846967453147628 -0.5892551509037941 0 -0.6061178655512601 -0.6317422446975648 0 -0.622380844585411 -0.6936971462390568 0 -0.6208054981090475 -0.8084450615915988 0 -0.2233902673360915 0.07520233224196265 0 -0.22902590161172495 0.10823150484329808 0 -0.22901896387959536 0.12961125718332236 0 -0.2348616267956152 0.13250458240466653 0 -0.24449239072003853 0.12640986247151403 0 -0.2553400995235188 0.11573967169056043 0 -0.2662519523378417 0.10245240381208817 0 -0.2767873475964057 0.08750173814532097 0 -0.28681401191883155 0.07140406143020289 0 -0.2963251094741548 0.05446362456134431 0 -0.3053624269966063 0.036870935578190545 0 -0.31398381428978667 0.01875034418003464 0 -0.32224944657169696 0.000185264057186292 0 -0.33021626351825256 -0.018767411838009052 0 -0.33793604594394583 -0.0380685501506745 0 -0.3454551240619616 -0.057691188439803684 0 -0.3528148077130019 -0.07761683800334954 0 -0.36005211995121583 -0.0978329784917884 0 -0.3672006423243384 -0.1183313438821135 0 -0.37429138761418246 -0.139106762848279 0 -0.38135366747438576 -0.16015641119236032 0 -0.38841594733458945 -0.18147939256766316 0 -0.39550669262443333 -0.2030766033208816 0 -0.40265521499755563 -0.22495086764994024 0 -0.4098925272357692 -0.24710735688088528 0 -0.4172522108868092 -0.2695543370367234 0 -0.42477128900482514 -0.29230432846697807 0 -0.4324910714305184 -0.31537581987369656 0 -0.4404578883770741 -0.3387957736978849 0 -0.4487235206589842 -0.3626033232944205 0 -0.45734490795216437 -0.3868553616156489 0 -0.4663822254746156 -0.41163530235187945 0 -0.47589332302993875 -0.4370674952024058 0 -0.4859199873523644 -0.46334244820667253 0 -0.49645538261092853 -0.49076441225929013 0 -0.5073672354252513 -0.5198497741002032 0 -0.5182149442287315 -0.5515522130386351 0 -0.5278457081531541 -0.587830122824869 0 -0.5336883710691731 -0.6330960777656006 0 -0.5336814333370435 -0.6968484598250128 0 -0.5393170676126776 -0.7722502621457352 0 -0.24049977966974118 0.10060620683781536 0 -0.2441888759899831 0.1144232831333104 0 -0.24487214171695798 0.12688108275065726 0 -0.24557060369833367 0.13048919355522323 0 -0.2489517448420975 0.1259360485988959 0 -0.2545082235513619 0.11635947482797673 0 -0.26130409651875686 0.10372207553632457 0 -0.2686895686700172 0.08913658132958308 0 -0.27628751370145616 0.07323659598277658 0 -0.283895966033107 0.05639786665911424 0 -0.2914142607318994 0.03885250097393691 0 -0.2987984069019642 0.02074891296341411 0 -0.3060355854116218 0.0021844898737800058 0 -0.3131297947415506 -0.01677572306553263 0 -0.3200937969305841 -0.03608783138217734 0 -0.3269446218854737 -0.05572210502857612 0 -0.333701099728948 -0.07565846572113284 0 -0.34038256242087955 -0.09588349892685616 0 -0.3470082261271937 -0.11638845144146907 0 -0.35359697133455836 -0.1371678996766056 0 -0.3601673526146938 -0.15821890234111308 0 -0.3667377338948289 -0.17954052939598975 0 -0.37332647910219346 -0.20113371088023718 0 -0.3799521428085073 -0.22300138808500802 0 -0.38663360550043857 -0.2451489845986687 0 -0.3933900833439132 -0.26758525362549573 0 -0.4002409082988027 -0.2903236096984809 0 -0.4072049104878362 -0.31338413110122004 0 -0.41429911981776507 -0.33679654788129126 0 -0.42153629832742234 -0.3606047545110413 0 -0.42892044449748684 -0.38487379621990275 0 -0.4364387391962787 -0.40970106025410974 0 -0.44404719152792943 -0.4352349606498321 0 -0.45164513655936817 -0.4617076050224106 0 -0.4590306087106282 -0.4894947405350539 0 -0.46582648167802304 -0.5192299709627868 0 -0.47138296038728705 -0.5520260269112532 0 -0.47476410153105036 -0.5898455116743123 0 -0.4754625635124257 -0.6358262521982648 0 -0.47614582923940063 -0.6906566815349983 0 -0.4798349255596431 -0.7468463875498789 0 -0.24456882657441384 0.11897180862603217 0 -0.248013955620828 0.12261434624836667 0 -0.2489731268250676 0.12753218461891497 0 -0.24905706297996327 0.1285140253138162 0 -0.24993270161520045 0.12419570164187609 0 -0.25234698771466946 0.11543529839128346 0 -0.25613071121252917 0.10355483809913907 0 -0.2608926924262341 0.08954043725616997 0 -0.2662866072451027 0.07404432109288973 0 -0.27206245491192543 0.05748489905475255 0 -0.2780540579903032 0.04013168185062948 0 -0.28415579036433003 0.02216054379481892 0 -0.29030287219403106 0.0036878770024432856 0 -0.2964572655464202 -0.015208409926800765 0 -0.3025981836583364 -0.03447578194537214 0 -0.3087158667175768 -0.05407871776224959 0 -0.3148075454774703 -0.07399326475616434 0 -0.32087483685753027 -0.09420343246220761 0 -0.326922066115629 -0.11469878571635012 0 -0.3329551814721323 -0.13547285362525738 0 -0.3389810377550015 -0.15652212334778953 0 -0.3450068940378706 -0.1778454833446415 0 -0.3510400093943737 -0.19944404515511824 0 -0.35708723865247205 -0.2213213216203597 0 -0.3631545300325321 -0.2434837836337001 0 -0.36924620879242576 -0.26594186635916905 0 -0.3753638918516662 -0.2887115602616757 0 -0.3815048099635825 -0.3118168179624882 0 -0.3876592033159714 -0.3352931607526281 0 -0.3938062851456723 -0.35919312367963663 0 -0.3999080175196987 -0.38359461534321065 0 -0.4058996205980761 -0.40861402785847156 0 -0.4116754682648985 -0.43442723553971907 0 -0.4170693830837669 -0.46130374909582367 0 -0.4218313642974713 -0.48966197797223926 0 -0.4256150877953308 -0.5201541473994798 0 -0.4280293738947995 -0.5537663738682729 0 -0.4289050125300363 -0.5918206799157187 0 -0.42898894868493165 -0.635175150330006 0 -0.42994811988917137 -0.68246561841994 0 -0.43339324893558595 -0.7284807857616595 0 -0.24212792554925094 0.13331195539745236 0 -0.24509355936729624 0.13080307529279744 0 -0.2463598074745946 0.13012918798025733 0 -0.24652731666224606 0.12794478302348883 0 -0.24668390083585315 0.12260513283030487 0 -0.24758875614489376 0.1139606207250432 0 -0.24951121081556388 0.1025577174722376 0 -0.2523806034172316 0.08906155684388552 0 -0.2560095390385179 0.07401650002618347 0 -0.2602050060959158 0.05781970475474938 0 -0.2648065184589901 0.04074847892226399 0 -0.26969202451922414 0.022993633515069015 0 -0.274772777701452 0.004686023648955929 0 -0.27998587492896965 -0.01408455798474694 0 -0.2852874628663052 -0.03325644577355077 0 -0.29064735050017726 -0.05278733598999169 0 -0.2960449776159677 -0.07264834441160394 0 -0.3014664723327987 -0.09281996694230399 0 -0.3069025159493663 -0.11328933981123764 0 -0.3123467765838265 -0.13404841097365103 0 -0.3177947228953093 -0.15509277751613174 0 -0.32324266920679195 -0.17642104069303516 0 -0.32868692984125203 -0.19803459925000585 0 -0.33412297345781944 -0.21993785610045619 0 -0.33954446817465045 -0.24213886328913958 0 -0.344942095290441 -0.2646504845869112 0 -0.35030198292431314 -0.2874922240898544 0 -0.3556035708616485 -0.31069296602043445 0 -0.36081666808916596 -0.3342950141061155 0 -0.36589742127139346 -0.35836003395938687 0 -0.37078292733162727 -0.38297781827157623 0 -0.3753844396947013 -0.4082792221584749 0 -0.3795799067520987 -0.43445505660642536 0 -0.38320884237338454 -0.46178262950810817 0 -0.386078234975052 -0.4906590985991407 0 -0.3880006896457218 -0.5216288250657201 0 -0.38890554495476204 -0.5553569426798439 0 -0.3890621291283689 -0.5923899222060457 0 -0.3892296383160204 -0.6325781469686623 0 -0.3904958864233189 -0.6742768893755077 0 -0.39346152024136466 -0.7141406389902373 0 -0.2354012549467001 0.14499248829580416 0 -0.23799557867581933 0.1384003419052843 0 -0.2393557628565772 0.1336523190144581 0 -0.23973734866120328 0.12855741930809755 0 -0.23976644279931392 0.12171113502955795 0 -0.24004944317790042 0.11259157649652167 0 -0.24094915121721394 0.10127447947556893 0 -0.24258562185944538 0.08809240590470488 0 -0.2449241699860377 0.07341866255460462 0 -0.2478641231499253 0.057574947813927996 0 -0.2512906226397502 0.04081150554966507 0 -0.2550981302712281 0.02331384028357179 0 -0.2591982522910829 0.005216210492227079 0 -0.2635203122100482 -0.013385454831355443 0 -0.26800912260226917 -0.03242316179551987 0 -0.2726220262724457 -0.0518490480909187 0 -0.2773260576541223 -0.07162971119601493 0 -0.282095504409979 -0.09174216128822987 0 -0.2869099023417082 -0.11217098143217662 0 -0.29175240104788314 -0.13290638736362492 0 -0.2966084080356171 -0.15394297464840084 0 -0.3014644150233511 -0.1752790170830091 0 -0.3063069137295259 -0.19691624087094473 0 -0.3111213116612552 -0.21886005044638204 0 -0.3158907584171119 -0.24112023007355063 0 -0.3205947897987886 -0.26371219668783824 0 -0.3252076934689651 -0.2866589401118236 0 -0.329696503861186 -0.30999386286704317 0 -0.3340185637801508 -0.33376482726284457 0 -0.3381186858000053 -0.35803982719088406 0 -0.341926193431483 -0.38291479164417513 0 -0.3453526929213075 -0.4085239790992964 0 -0.34829264608519467 -0.43505289407800435 0 -0.35063119421178657 -0.4627517804472887 0 -0.35226766485401767 -0.4919423365958094 0 -0.3531673728933309 -0.5229978692942414 0 -0.3534503732719171 -0.5562509404805904 0 -0.3534794674100277 -0.5917772859214362 0 -0.3538610532146537 -0.6290550159344604 0 -0.3552212373954119 -0.6666796227630194 0 -0.35781556112453156 -0.7024601060918836 0 -0.22570069762310518 0.1547825044341696 0 -0.22797284005455126 0.14528510233235037 0 -0.22933081436385352 0.13750440385127555 0 -0.22986952865702462 0.12995237791799574 0 -0.22995735976876108 0.12151865355262297 0 -0.23002454709263362 0.11160695923530402 0 -0.23040806275916456 0.10005196961282675 0 -0.23129652030099696 0.08694932481339165 0 -0.23275131900121718 0.07250474943580668 0 -0.23475257180367948 0.056941785587781076 0 -0.23724030120441505 0.04045939890151711 0 -0.2401410281801766 0.023219274646670302 0 -0.24338204065708471 0.0053465436820210755 0 -0.24689775820023943 -0.013064690906460851 0 -0.2506317154033981 -0.03194497102239278 0 -0.25453637409147023 -0.05124375727164713 0 -0.2585719962899233 -0.070924785777633 0 -0.26270520666298197 -0.09096250198090917 0 -0.2669075345786222 -0.1113394263601009 0 -0.2711540469855697 -0.13204428871308513 0 -0.27542209317592503 -0.15307079360822673 0 -0.27969013936628034 -0.17441691843246923 0 -0.2839366517732279 -0.19608468579886892 0 -0.28813897968886815 -0.21808039113906125 0 -0.292272190061927 -0.24041530465516878 0 -0.29630781226037994 -0.2631069058685668 0 -0.3002124709484521 -0.28618074933869647 0 -0.30394642815161077 -0.30967309894214856 0 -0.30746214569476527 -0.3336344940730509 0 -0.310703158171673 -0.3581343928277856 0 -0.3136038851474341 -0.38326689829232313 0 -0.3160916145481693 -0.40915714132544334 0 -0.3180928673506312 -0.4359668071968022 0 -0.31954766605085105 -0.463894861538602 0 -0.3204361235926832 -0.49316484645855135 0 -0.320819639259214 -0.5239824865554588 0 -0.3208868265830862 -0.5564434219575248 0 -0.32097465769482264 -0.5903823273115371 0 -0.3215133719879938 -0.625202931097642 0 -0.32287134629729625 -0.6597948623359519 0 -0.3251434887287428 -0.6926700899535166 0 -0.2137930934463721 0.16313209639231527 0 -0.2157900136044673 0.15146631183652032 0 -0.21708971754295653 0.1413711378490783 0 -0.21771985904093724 0.13179519780870658 0 -0.21789832721326596 0.12187567548144092 0 -0.21792235419130732 0.11105115941766851 0 -0.21806580501892409 0.0990547509592024 0 -0.21852324764595873 0.08583647204538629 0 -0.21940006760283104 0.07147188841670928 0 -0.22072974001461185 0.056090198860646694 0 -0.22249847963760988 0.03983012845744561 0 -0.22466658812821746 0.02281806639080579 0 -0.22718320844701437 0.005160015787948349 0 -0.22999517223868826 -0.013059327840997172 0 -0.23305165227843438 -0.031774398701698826 0 -0.23630618097388334 -0.05093560923814162 0 -0.23971714794823276 -0.07050622225151383 0 -0.24324748171970584 -0.090459651404964 0 -0.24686392845028213 -0.11077731057941914 0 -0.25053615342104874 -0.1314470108916013 0 -0.254235778316233 -0.15246186317135807 0 -0.2579354032114173 -0.17381964061098545 0 -0.2616076281821839 -0.19552257001818713 0 -0.2652240749127602 -0.217577540563116 0 -0.26875440868423334 -0.23999674112904962 0 -0.2721653756585829 -0.26279875783506135 0 -0.2754199043540317 -0.28601017701800263 0 -0.27847638439377775 -0.3096677358766849 0 -0.2812883481854514 -0.3338210219671236 0 -0.28380496850424813 -0.3585356010836504 0 -0.28597307699485547 -0.3838961687363948 0 -0.2877418166178531 -0.4100087280525778 0 -0.28907148902963337 -0.43699966821589964 0 -0.2899483089865055 -0.46500771430660715 0 -0.29040575161353976 -0.4941620651121755 0 -0.29054920244115634 -0.5245382863730941 0 -0.2905732294191976 -0.5560864000287064 0 -0.2907516975915263 -0.5885395074208255 0 -0.29138183908950693 -0.6213361970998386 0 -0.2926815430279962 -0.6536136528317809 0 -0.29467846318609175 -0.6843204979953698 0 -0.2001858276969345 0.1703278082459944 0 -0.20194213268641553 0.15698714712672285 0 -0.20315511311831846 0.1450855609707337 0 -0.20382304838906157 0.13385161859864877 0 -0.20407722194781241 0.1226107965634324 0 -0.20412125980545998 0.11086870151373558 0 -0.2041663978410594 0.09832866040715325 0 -0.2043861462179867 0.08486086669337924 0 -0.20489733835738994 0.07045109603369178 0 -0.20576149059252052 0.05515129545714442 0 -0.20699650950971915 0.03904262570055938 0 -0.20859066366067933 0.02221235844084992 0 -0.2105145874805296 0.00474161277835383 0 -0.21272999776334753 -0.01329987825437021 0 -0.21519533974248642 -0.03185503108429688 0 -0.2178690829824654 -0.050878713329792075 0 -0.2207113998348276 -0.07033625999229749 0 -0.2236848043559298 -0.09020183414323553 0 -0.2267541563692378 -0.11045694110917263 0 -0.2298862946431689 -0.13108923091945762 0 -0.233049463456541 -0.15209163693332892 0 -0.23621263226991324 -0.17346186063884173 0 -0.23934477054384445 -0.19520220054794057 0 -0.24241412255715236 -0.2173197233013875 0 -0.24538752707825462 -0.23982677886983328 0 -0.24822984393061687 -0.2627418619267119 0 -0.25090358717059574 -0.2860908094006008 0 -0.25336892914973447 -0.309908286290058 0 -0.2555843394325522 -0.3342394249767182 0 -0.2575082632524021 -0.35914130903360647 0 -0.25910241740336215 -0.3846836714932811 0 -0.2603374363205603 -0.41094763145608015 0 -0.2612015885556906 -0.43802046059891714 0 -0.2617127806950934 -0.465983319658614 0 -0.26193252907202047 -0.49488815566422445 0 -0.26197766710761977 -0.5247207442770265 0 -0.2620217049652671 -0.5553512789467143 0 -0.26227587852401796 -0.5864830866308827 0 -0.26294381379476106 -0.6176217739781824 0 -0.26415679422666405 -0.6480928175415773 0 -0.26591309921614553 -0.6771247861416897 0 -0.18523303935281943 0.17656079986675305 0 -0.18677522997557536 0.1618949888166313 0 -0.18788676280246985 0.14855825493813676 0 -0.18855415306141102 0.13596437000441466 0 -0.18885763337193576 0.12357783986414675 0 -0.18893725940144887 0.11097319145216389 0 -0.18895212007325682 0.09785775320152104 0 -0.18904694484935072 0.08406294136963745 0 -0.18933284976811665 0.06951742617560677 0 -0.1898816955544513 0.05421553452253607 0 -0.1907295744789249 0.03818956337419088 0 -0.19188451017623645 0.021489447785946764 0 -0.19333482495369042 0.004169719112986091 0 -0.19505633344435222 -0.013717861058918878 0 -0.1970177585669138 -0.03212784377240812 0 -0.199184436116394 -0.05102233068262778 0 -0.2015206329014968 -0.07037096688253237 0 -0.20399084294817912 -0.09015035965535058 0 -0.20656037547565242 -0.11034331872244904 0 -0.20919547512438527 -0.13093813720180544 0 -0.21186314859684918 -0.1519280274330969 0 -0.21453082206931318 -0.17331076692118952 0 -0.21716592171804588 -0.19508857816121694 0 -0.21973545424551913 -0.21726824881350257 0 -0.22220566429220154 -0.23986148576006816 0 -0.22454186107730434 -0.2628854792795476 0 -0.22670853862678447 -0.2863636220887121 0 -0.22866996374934576 -0.31032626909460687 0 -0.2303914722400074 -0.3348113186420861 0 -0.2318417870174612 -0.3598642196885096 0 -0.2329967227147725 -0.3855367338196496 0 -0.23384460163924586 -0.4118833923906887 0 -0.23439344742558005 -0.43895413045700216 0 -0.23467935234434562 -0.4667812449823558 0 -0.2347741771204392 -0.4953590628698566 0 -0.23478903779224697 -0.5246162543385978 0 -0.23486866382176005 -0.5543842356459997 0 -0.23517214413228474 -0.5843703352251163 0 -0.23583953439122582 -0.6141490800107785 0 -0.23695106721812043 -0.6431849758516678 0 -0.23849325784087655 -0.6708917945209301 0 -0.16919572230405228 0.18196383591550921 0 -0.17054393293433506 0.16623255438529175 0 -0.1715468054170662 0.1517409799509061 0 -0.17218705759286296 0.13802892975235773 0 -0.1725143202866848 0.12466289530000084 0 -0.17262564885363557 0.11127807947278939 0 -0.1726396924517659 0.09759967560517396 0 -0.17267296146552213 0.08344403452246942 0 -0.1728234120259651 0.06870587164841256 0 -0.1731625630635236 0.053339133455743065 0 -0.17373455018928416 0.03733760587396922 0 -0.1745594388308647 0.020718708766343914 0 -0.1756383471089554 0.0035116073300294716 0 -0.17695871111300032 -0.014250646861133254 0 -0.1784988216553728 -0.03253582763406168 0 -0.1802313295833741 -0.051315057181651136 0 -0.182