# vtk DataFile Version 4.2
Quad2D4N
ASCII

DATASET UNSTRUCTURED_GRID
POINTS 1681 double
0 0 0 25 0 0 50 0 0 75 0 0 100 0 0 125 0 0 150 0 0 175 0 0 200 0 0 225 0 0 250 0 0 275 0 0 300 0 0 325 0 0 350 0 0 375 0 0 400 0 0 425 0 0 450 0 0 475 0 0 500 0 0 525 0 0 550 0 0 575 0 0 600 0 0 625 0 0 650 0 0 675 0 0 700 0 0 725 0 0 750 0 0 775 0 0 800 0 0 825 0 0 850 0 0 875 0 0 900 0 0 925 0 0 950 0 0 975 0 0 1000 0 0 0 25 0 25 25 0 50 25 0 75 25 0 100 25 0 125 25 0 150 25 0 175 25 0 200 25 0 225 25 0 250 25 0 275 25 0 300 25 0 325 25 0 350 25 0 375 25 0 400 25 0 425 25 0 450 25 0 475 25 0 500 25 0 525 25 0 550 25 0 575 25 0 600 25 0 625 25 0 650 25 0 675 25 0 700 25 0 725 25 0 750 25 0 775 25 0 800 25 0 825 25 0 850 25 0 875 25 0 900 25 0 925 25 0 950 25 0 975 25 0 1000 25 0 0 50 0 25 50 0 50 50 0 75 50 0 100 50 0 125 50 0 150 50 0 175 50 0 200 50 0 225 50 0 250 50 0 275 50 0 300 50 0 325 50 0 350 50 0 375 50 0 400 50 0 425 50 0 450 50 0 475 50 0 500 50 0 525 50 0 550 50 0 575 50 0 600 50 0 625 50 0 650 50 0 675 50 0 700 50 0 725 50 0 750 50 0 775 50 0 800 50 0 825 50 0 850 50 0 875 50 0 900 50 0 925 50 0 950 50 0 975 50 0 1000 50 0 0 75 0 25 75 0 50 75 0 75 75 0 100 75 0 125 75 0 150 75 0 175 75 0 200 75 0 225 75 0 250 75 0 275 75 0 300 75 0 325 75 0 350 75 0 375 75 0 400 75 0 425 75 0 450 75 0 475 75 0 500 75 0 525 75 0 550 75 0 575 75 0 600 75 0 625 75 0 650 75 0 675 75 0 700 75 0 725 75 0 750 75 0 775 75 0 800 75 0 825 75 0 850 75 0 875 75 0 900 75 0 925 75 0 950 75 0 975 75 0 1000 75 0 0 100 0 25 100 0 50 100 0 75 100 0 100 100 0 125 100 0 150 100 0 175 100 0 200 100 0 225 100 0 250 100 0 275 100 0 300 100 0 325 100 0 350 100 0 375 100 0 400 100 0 425 100 0 450 100 0 475 100 0 500 100 0 525 100 0 550 100 0 575 100 0 600 100 0 625 100 0 650 100 0 675 100 0 700 100 0 725 100 0 750 100 0 775 100 0 800 100 0 825 100 0 850 100 0 875 100 0 900 100 0 925 100 0 950 100 0 975 100 0 1000 100 0 0 125 0 25 125 0 50 125 0 75 125 0 100 125 0 125 125 0 150 125 0 175 125 0 200 125 0 225 125 0 250 125 0 275 125 0 300 125 0 325 125 0 350 125 0 375 125 0 400 125 0 425 125 0 450 125 0 475 125 0 500 125 0 525 125 0 550 125 0 575 125 0 600 125 0 625 125 0 650 125 0 675 125 0 700 125 0 725 125 0 750 125 0 775 125 0 800 125 0 825 125 0 850 125 0 875 125 0 900 125 0 925 125 0 950 125 0 975 125 0 1000 125 0 0 150 0 25 150 0 50 150 0 75 150 0 100 150 0 125 150 0 150 150 0 175 150 0 200 150 0 225 150 0 250 150 0 275 150 0 300 150 0 325 150 0 350 150 0 375 150 0 400 150 0 425 150 0 450 150 0 475 150 0 500 150 0 525 150 0 550 150 0 575 150 0 600 150 0 625 150 0 650 150 0 675 150 0 700 150 0 725 150 0 750 150 0 775 150 0 800 150 0 825 150 0 850 150 0 875 150 0 900 150 0 925 150 0 950 150 0 975 150 0 1000 150 0 0 175 0 25 175 0 50 175 0 75 175 0 100 175 0 125 175 0 150 175 0 175 175 0 200 175 0 225 175 0 250 175 0 275 175 0 300 175 0 325 175 0 350 175 0 375 175 0 400 175 0 425 175 0 450 175 0 475 175 0 500 175 0 525 175 0 550 175 0 575 175 0 600 175 0 625 175 0 650 175 0 675 175 0 700 175 0 725 175 0 750 175 0 775 175 0 800 175 0 825 175 0 850 175 0 875 175 0 900 175 0 925 175 0 950 175 0 975 175 0 1000 175 0 0 200 0 25 200 0 50 200 0 75 200 0 100 200 0 125 200 0 150 200 0 175 200 0 200 200 0 225 200 0 250 200 0 275 200 0 300 200 0 325 200 0 350 200 0 375 200 0 400 200 0 425 200 0 450 200 0 475 200 0 500 200 0 525 200 0 550 200 0 575 200 0 600 200 0 625 200 0 650 200 0 675 200 0 700 200 0 725 200 0 750 200 0 775 200 0 800 200 0 825 200 0 850 200 0 875 200 0 900 200 0 925 200 0 950 200 0 975 200 0 1000 200 0 0 225 0 25 225 0 50 225 0 75 225 0 100 225 0 125 225 0 150 225 0 175 225 0 200 225 0 225 225 0 250 225 0 275 225 0 300 225 0 325 225 0 350 225 0 375 225 0 400 225 0 425 225 0 450 225 0 475 225 0 500 225 0 525 225 0 550 225 0 575 225 0 600 225 0 625 225 0 650 225 0 675 225 0 700 225 0 725 225 0 750 225 0 775 225 0 800 225 0 825 225 0 850 225 0 875 225 0 900 225 0 925 225 0 950 225 0 975 225 0 1000 225 0 0 250 0 25 250 0 50 250 0 75 250 0 100 250 0 125 250 0 150 250 0 175 250 0 200 250 0 225 250 0 250 250 0 275 250 0 300 250 0 325 250 0 350 250 0 375 250 0 400 250 0 425 250 0 450 250 0 475 250 0 500 250 0 525 250 0 550 250 0 575 250 0 600 250 0 625 250 0 650 250 0 675 250 0 700 250 0 725 250 0 750 250 0 775 250 0 800 250 0 825 250 0 850 250 0 875 250 0 900 250 0 925 250 0 950 250 0 975 250 0 1000 250 0 0 275 0 25 275 0 50 275 0 75 275 0 100 275 0 125 275 0 150 275 0 175 275 0 200 275 0 225 275 0 250 275 0 275 275 0 300 275 0 325 275 0 350 275 0 375 275 0 400 275 0 425 275 0 450 275 0 475 275 0 500 275 0 525 275 0 550 275 0 575 275 0 600 275 0 625 275 0 650 275 0 675 275 0 700 275 0 725 275 0 750 275 0 775 275 0 800 275 0 825 275 0 850 275 0 875 275 0 900 275 0 925 275 0 950 275 0 975 275 0 1000 275 0 0 300 0 25 300 0 50 300 0 75 300 0 100 300 0 125 300 0 150 300 0 175 300 0 200 300 0 225 300 0 250 300 0 275 300 0 300 300 0 325 300 0 350 300 0 375 300 0 400 300 0 425 300 0 450 300 0 475 300 0 500 300 0 525 300 0 550 300 0 575 300 0 600 300 0 625 300 0 650 300 0 675 300 0 700 300 0 725 300 0 750 300 0 775 300 0 800 300 0 825 300 0 850 300 0 875 300 0 900 300 0 925 300 0 950 300 0 975 300 0 1000 300 0 0 325 0 25 325 0 50 325 0 75 325 0 100 325 0 125 325 0 150 325 0 175 325 0 200 325 0 225 325 0 250 325 0 275 325 0 300 325 0 325 325 0 350 325 0 375 325 0 400 325 0 425 325 0 450 325 0 475 325 0 500 325 0 525 325 0 550 325 0 575 325 0 600 325 0 625 325 0 650 325 0 675 325 0 700 325 0 725 325 0 750 325 0 775 325 0 800 325 0 825 325 0 850 325 0 875 325 0 900 325 0 925 325 0 950 325 0 975 325 0 1000 325 0 0 350 0 25 350 0 50 350 0 75 350 0 100 350 0 125 350 0 150 350 0 175 350 0 200 350 0 225 350 0 250 350 0 275 350 0 300 350 0 325 350 0 350 350 0 375 350 0 400 350 0 425 350 0 450 350 0 475 350 0 500 350 0 525 350 0 550 350 0 575 350 0 600 350 0 625 350 0 650 350 0 675 350 0 700 350 0 725 350 0 750 350 0 775 350 0 800 350 0 825 350 0 850 350 0 875 350 0 900 350 0 925 350 0 950 350 0 975 350 0 1000 350 0 0 375 0 25 375 0 50 375 0 75 375 0 100 375 0 125 375 0 150 375 0 175 375 0 200 375 0 225 375 0 250 375 0 275 375 0 300 375 0 325 375 0 350 375 0 375 375 0 400 375 0 425 375 0 450 375 0 475 375 0 500 375 0 525 375 0 550 375 0 575 375 0 600 375 0 625 375 0 650 375 0 675 375 0 700 375 0 725 375 0 750 375 0 775 375 0 800 375 0 825 375 0 850 375 0 875 375 0 900 375 0 925 375 0 950 375 0 975 375 0 1000 375 0 0 400 0 25 400 0 50 400 0 75 400 0 100 400 0 125 400 0 150 400 0 175 400 0 200 400 0 225 400 0 250 400 0 275 400 0 300 400 0 325 400 0 350 400 0 375 400 0 400 400 0 425 400 0 450 400 0 475 400 0 500 400 0 525 400 0 550 400 0 575 400 0 600 400 0 625 400 0 650 400 0 675 400 0 700 400 0 725 400 0 750 400 0 775 400 0 800 400 0 825 400 0 850 400 0 875 400 0 900 400 0 925 400 0 950 400 0 975 400 0 1000 400 0 0 425 0 25 425 0 50 425 0 75 425 0 100 425 0 125 425 0 150 425 0 175 425 0 200 425 0 225 425 0 250 425 0 275 425 0 300 425 0 325 425 0 350 425 0 375 425 0 400 425 0 425 425 0 450 425 0 475 425 0 500 425 0 525 425 0 550 425 0 575 425 0 600 425 0 625 425 0 650 425 0 675 425 0 700 425 0 725 425 0 750 425 0 775 425 0 800 425 0 825 425 0 850 425 0 875 425 0 900 425 0 925 425 0 950 425 0 975 425 0 1000 425 0 0 450 0 25 450 0 50 450 0 75 450 0 100 450 0 125 450 0 150 450 0 175 450 0 200 450 0 225 450 0 250 450 0 275 450 0 300 450 0 325 450 0 350 450 0 375 450 0 400 450 0 425 450 0 450 450 0 475 450 0 500 450 0 525 450 0 550 450 0 575 450 0 600 450 0 625 450 0 650 450 0 675 450 0 700 450 0 725 450 0 750 450 0 775 450 0 800 450 0 825 450 0 850 450 0 875 450 0 900 450 0 925 450 0 950 450 0 975 450 0 1000 450 0 0 475 0 25 475 0 50 475 0 75 475 0 100 475 0 125 475 0 150 475 0 175 475 0 200 475 0 225 475 0 250 475 0 275 475 0 300 475 0 325 475 0 350 475 0 375 475 0 400 475 0 425 475 0 450 475 0 475 475 0 500 475 0 525 475 0 550 475 0 575 475 0 600 475 0 625 475 0 650 475 0 675 475 0 700 475 0 725 475 0 750 475 0 775 475 0 800 475 0 825 475 0 850 475 0 875 475 0 900 475 0 925 475 0 950 475 0 975 475 0 1000 475 0 0 500 0 25 500 0 50 500 0 75 500 0 100 500 0 125 500 0 150 500 0 175 500 0 200 500 0 225 500 0 250 500 0 275 500 0 300 500 0 325 500 0 350 500 0 375 500 0 400 500 0 425 500 0 450 500 0 475 500 0 500 500 0 525 500 0 550 500 0 575 500 0 600 500 0 625 500 0 650 500 0 675 500 0 700 500 0 725 500 0 750 500 0 775 500 0 800 500 0 825 500 0 850 500 0 875 500 0 900 500 0 925 500 0 950 500 0 975 500 0 1000 500 0 0 525 0 25 525 0 50 525 0 75 525 0 100 525 0 125 525 0 150 525 0 175 525 0 200 525 0 225 525 0 250 525 0 275 525 0 300 525 0 325 525 0 350 525 0 375 525 0 400 525 0 425 525 0 450 525 0 475 525 0 500 525 0 525 525 0 550 525 0 575 525 0 600 525 0 625 525 0 650 525 0 675 525 0 700 525 0 725 525 0 750 525 0 775 525 0 800 525 0 825 525 0 850 525 0 875 525 0 900 525 0 925 525 0 950 525 0 975 525 0 1000 525 0 0 550 0 25 550 0 50 550 0 75 550 0 100 550 0 125 550 0 150 550 0 175 550 0 200 550 0 225 550 0 250 550 0 275 550 0 300 550 0 325 550 0 350 550 0 375 550 0 400 550 0 425 550 0 450 550 0 475 550 0 500 550 0 525 550 0 550 550 0 575 550 0 600 550 0 625 550 0 650 550 0 675 550 0 700 550 0 725 550 0 750 550 0 775 550 0 800 550 0 825 550 0 850 550 0 875 550 0 900 550 0 925 550 0 950 550 0 975 550 0 1000 550 0 0 575 0 25 575 0 50 575 0 75 575 0 100 575 0 125 575 0 150 575 0 175 575 0 200 575 0 225 575 0 250 575 0 275 575 0 300 575 0 325 575 0 350 575 0 375 575 0 400 575 0 425 575 0 450 575 0 475 575 0 500 575 0 525 575 0 550 575 0 575 575 0 600 575 0 625 575 0 650 575 0 675 575 0 700 575 0 725 575 0 750 575 0 775 575 0 800 575 0 825 575 0 850 575 0 875 575 0 900 575 0 925 575 0 950 575 0 975 575 0 1000 575 0 0 600 0 25 600 0 50 600 0 75 600 0 100 600 0 125 600 0 150 600 0 175 600 0 200 600 0 225 600 0 250 600 0 275 600 0 300 600 0 325 600 0 350 600 0 375 600 0 400 600 0 425 600 0 450 600 0 475 600 0 500 600 0 525 600 0 550 600 0 575 600 0 600 600 0 625 600 0 650 600 0 675 600 0 700 600 0 725 600 0 750 600 0 775 600 0 800 600 0 825 600 0 850 600 0 875 600 0 900 600 0 925 600 
[...]
POINT_DATA 1681

VECTORS displacement double
0 0 0 -11.03481763034358 10.351040047749414 0 -17.393183959941435 12.26487519275416 0 -21.400656505873457 12.395000954838478 0 -24.281152642060597 11.773717143445253 0 -26.53023253521745 10.754517146023412 0 -28.38039351845168 9.486740908754848 0 -29.958175217565625 8.050046851466101 0 -31.34038740699261 6.491458609016049 0 -32.57736656631692 4.840713017468747 0 -33.703976161266986 3.1174535521778504 0 -34.745387923145046 1.3350485329062227 0 -35.72037581687795 -0.4972215230209281 0 -36.643316730563456 -2.3728325754919637 0 -37.52547221495778 -4.287167828054623 0 -38.375848823280755 -6.236955887424578 0 -39.20180091830288 -8.219888923180344 0 -40.00947096823285 -10.234358790263446 0 -40.804125074246606 -12.279273954008973 0 -41.59042048308568 -14.353934413974521 0 -42.37262971937696 -16.457950543121786 0 -43.15483895566816 -18.59119738591294 0 -43.94113436450723 -20.753799897885752 0 -44.73578847052095 -22.94614770607863 0 -45.543458520450905 -25.1689408109339 0 -46.36941061547301 -27.423270747116526 0 -47.21978722379598 -29.71074565968497 0 -48.10194270819031 -32.03367337906071 0 -49.02488362187581 -34.39532529852804 0 -49.99987151560874 -36.80031821453926 0 -51.04128327748684 -39.255176167206066 0 -52.16789287243693 -41.76917967385362 0 -53.40487203176126 -44.3556970542448 0 -54.78708422118826 -47.03437178373322 0 -56.36486592030225 -49.834940698383015 0 -58.21502690353653 -52.80442743305294 0 -60.46410679669345 -56.022490407569656 0 -63.34460293288072 -59.63846956811506 0 -67.35207547881285 -64.00585830213817 0 -73.7104418084108 -70.15695641908184 0 -84.74525943875437 -84.74525943877154 0 -18.427446655910728 3.9007532796104525 0 -18.26991200827429 11.13828184292557 0 -19.89620991168948 13.096509025135742 0 -22.038321935339265 13.10795543257406 0 -24.021464101324653 12.380420688366911 0 -25.765013514102726 11.274522952867162 0 -27.29704117894045 9.940208085463384 0 -28.658775023165212 8.45244385798741 0 -29.885729630913783 6.854325115220458 0 -31.005974817482365 5.172676154932944 0 -32.04136722549849 3.4250601659352387 0 -33.00901067291322 1.623351590674147 0 -33.92243701739285 -0.22425682508919592 0 -34.79249028302884 -2.112044890665294 0 -35.62797975099991 -4.035996981112958 0 -36.43616686419885 -5.993294378231154 0 -37.223135370077586 -7.981969902924502 0 -37.99407999958208 -10.000668779326023 0 -38.753538572466326 -12.048482354979427 0 -39.50558528659865 -14.124834257903991 0 -40.253998233407714 -16.22940639500978 0 -41.00241118021678 -18.362097229842405 0 -41.754457894349095 -20.523008298856215 0 -42.51391646723332 -22.712457695141207 0 -43.28486109673779 -24.931021790678056 0 -44.071829602616525 -27.179609237923113 0 -44.88001671581543 -29.459574812743305 0 -45.7155061837865 -31.77288569423403 0 -46.58555944942249 -34.1223606005963 0 -47.498985793902136 -36.512015156771334 0 -48.46662924131687 -38.94756955344867 0 -49.50202164933303 -41.437216536389414 0 -50.622266835901605 -43.992830548040395 0 -51.849221443650165 -46.631974777211916 0 -53.21095528787493 -49.38147352167445 0 -54.742982952712715 -52.28442162620917 0 -56.486532365490795 -55.41578686264798 0 -58.469674531476194 -58.92551509037947 0 -60.61178655512592 -63.174224469756545 0 -62.23808445854102 -69.36971462390575 0 -62.08054981090466 -80.84450615915995 0 -22.339026733609092 7.520233224196212 0 -22.902590161172437 10.823150484329739 0 -22.901896387959482 12.961125718332156 0 -23.486162679561467 13.25045824046656 0 -24.4492390720038 12.640986247151307 0 -25.53400995235182 11.573967169055944 0 -26.625195233784112 10.245240381208719 0 -27.67873475964051 8.750173814531992 0 -28.68140119188309 7.140406143020183 0 -29.63251094741541 5.446362456134323 0 -30.536242699660562 3.687093557818946 0 -31.39838142897859 1.8750344180033556 0 -32.22494465716962 0.018526405718520853 0 -33.02162635182517 -1.8767411838010166 0 -33.7936045943945 -3.8068550150675624 0 -34.54551240619608 -5.76911884398048 0 -35.2814807713001 -7.761683800335065 0 -36.00521199512149 -9.783297849178945 0 -36.72006423243374 -11.83313438821146 0 -37.42913876141815 -13.910676284828007 0 -38.13536674743849 -16.015641119236136 0 -38.84159473345884 -18.14793925676641 0 -39.550669262443236 -20.307660332088254 0 -40.265521499755465 -22.495086764994127 0 -40.98925272357683 -24.710735688088626 0 -41.72522108868083 -26.955433703672437 0 -42.47712890048242 -29.230432846697898 0 -43.24910714305175 -31.537581987369737 0 -44.04578883770732 -33.87957736978858 0 -44.87235206589832 -36.26033232944214 0 -45.734490795216345 -38.685536161564976 0 -46.638222547461474 -41.16353023518804 0 -47.58933230299378 -43.70674952024067 0 -48.59199873523636 -46.33424482066733 0 -49.645538261092774 -49.076441225929095 0 -50.73672354252506 -51.98497741002038 0 -51.82149442287306 -55.15522130386357 0 -52.784570815315334 -58.78301228248697 0 -53.368837106917226 -63.309607776560135 0 -53.36814333370427 -69.68484598250134 0 -53.9317067612677 -77.22502621457359 0 -24.049977966974055 10.060620683781469 0 -24.418887598998246 11.442328313330968 0 -24.487214171695733 12.688108275065641 0 -24.55706036983331 13.048919355522234 0 -24.895174484209694 12.59360485988949 0 -25.450822355136125 11.635947482797574 0 -26.130409651875617 10.372207553632357 0 -26.868956867001657 8.9136581329582 0 -27.62875137014555 7.323659598277551 0 -28.38959660331063 5.6397866659113145 0 -29.141426073189876 3.8852500973935817 0 -29.879840690196346 2.074891296341301 0 -30.603558541162094 0.21844898737789012 0 -31.312979474154975 -1.677572306553372 0 -32.009379693058335 -3.608783138217848 0 -32.69446218854729 -5.572210502857724 0 -33.370109972894724 -7.565846572113395 0 -34.03825624208786 -9.588349892685729 0 -34.70082261271928 -11.638845144147016 0 -35.359697133455754 -13.716789967660667 0 -36.016735261469286 -15.821890234111411 0 -36.6737733894828 -17.954052939599073 0 -37.332647910219244 -20.11337108802382 0 -37.99521428085064 -22.30013880850091 0 -38.66336055004378 -24.514898459866966 0 -39.339008334391224 -26.758525362549676 0 -40.02409082988018 -29.03236096984818 0 -40.72049104878353 -31.338413110122094 0 -41.429911981776414 -33.67965478812921 0 -42.153629832742155 -36.06047545110422 0 -42.8920444497486 -38.48737962199036 0 -43.64387391962779 -40.97010602541106 0 -44.404719152792865 -43.5234960649833 0 -45.16451365593672 -46.17076050224114 0 -45.903060871062735 -48.94947405350546 0 -46.58264816780223 -51.92299709627874 0 -47.13829603872864 -55.2026026911254 0 -47.47641015310496 -58.984551167431306 0 -47.54625635124249 -63.58262521982654 0 -47.614582923939984 -69.06566815349987 0 -47.98349255596423 -74.68463875498796 0 -24.45688265744132 11.897180862603143 0 -24.80139556208274 12.261434624836587 0 -24.897312682506694 12.75321846189141 0 -24.905706297996264 12.851402531381533 0 -24.99327016151998 12.419570164187515 0 -25.234698771466878 11.543529839128247 0 -25.61307112125285 10.355483809913807 0 -26.08926924262334 8.954043725616891 0 -26.6286607245102 7.404432109288864 0 -27.206245491192472 5.748489905475146 0 -27.805405799030254 4.013168185062837 0 -28.415579036432923 2.216054379481778 0 -29.030287219403032 0.36878770024421526 0 -29.645726554641936 -1.5208409926801885 0 -30.25981836583356 -3.447578194537324 0 -30.8715866717576 -5.40787177622507 0 -31.48075454774695 -7.399326475616546 0 -32.087483685752936 -9.420343246220872 0 -32.69220661156281 -11.469878571635117 0 -33.295518147213144 -13.547285362525846 0 -33.89810377550006 -15.652212334779056 0 -34.50068940378697 -17.784548334464255 0 -35.10400093943728 -19.944404515511923 0 -35.70872386524713 -22.132132162036072 0 -36.31545300325313 -24.348378363370113 0 -36.9246208792425 -26.594186635917016 0 -37.53638918516653 -28.871156026167668 0 -38.15048099635817 -31.181681796248917 0 -38.76592033159705 -33.529316075262905 0 -39.38062851456714 -35.91931236796375 0 -39.99080175196978 -38.35946153432114 0 -40.58996205980751 -40.86140278584727 0 -41.16754682648977 -43.442723553972 0 -41.706938308376614 -46.13037490958246 0 -42.18313642974706 -48.966197797224005 0 -42.56150877953301 -52.015414739948056 0 -42.802937389479865 -55.37663738682737 0 -42.89050125300356 -59.18206799157197 0 -42.898894868493095 -63.51751503300066 0 -42.994811988917064 -68.24656184199407 0 -43.33932489355853 -72.84807857616602 0 -24.212792554925027 13.331195539745151 0 -24.509355936729555 13.080307529279661 0 -24.635980747459392 13.012918798025646 0 -24.652731666224533 12.79447830234879 0 -24.66839008358524 12.26051328303039 0 -24.758875614489302 11.39606207250422 0 -24.951121081556323 10.255771747223658 0 -25.23806034172309 8.906155684388445 0 -25.600953903851718 7.401650002618237 0 -26.0205006095915 5.781970475474827 0 -26.480651845898937 4.074847892226288 0 -26.969202451922342 2.2993633515067877 0 -27.47727777014513 0.46860236489547874 0 -27.99858749289689 -1.4084557984748063 0 -28.528746286630433 -3.3256445773551864 0 -29.064735050017642 -5.278733598999279 0 -29.60449776159669 -7.264834441160503 0 -30.14664723327979 -9.281996694230507 0 -30.69025159493654 -11.328933981123871 0 -31.234677658382562 -13.404841097365207 0 -31.779472289530855 -15.509277751613281 0 -32.32426692067913 -17.64210406930362 0 -32.86869298412513 -19.803459925000684 0 -33.412297345781866 -21.99378561004572 0 -33.95444681746496 -24.21388632891406 0 -34.49420952904402 -26.46504845869122 0 -35.03019829243124 -28.749222408985535 0 -35.56035708616477 -31.06929660204354 0 -36.08166680891651 -33.42950141061165 0 -36.58974212713927 -35.83600339593877 0 -37.07829273316265 -38.2977818271577 0 -37.538443969470045 -40.827922215847586 0 -37.95799067520979 -43.44550566064264 0 -38.320884237338376 -46.17826295081092 0 -38.607823497505116 -49.06590985991415 0 -38.8000689645721 -52.16288250657209 0 -38.890554495476124 -55.53569426798447 0 -38.906212912836814 -59.23899222060465 0 -38.92296383160196 -63.25781469686631 0 -39.04958864233181 -67.42768893755083 0 -39.34615202413639 -71.4140638990238 0 -23.540125494669937 14.49924882958033 0 -23.799557867581864 13.840034190528343 0 -23.935576285657646 13.365231901445718 0 -23.973734866120253 12.855741930809662 0 -23.97664427993132 12.171113502955697 0 -24.004944317789974 11.259157649652066 0 -24.09491512172133 10.127447947556787 0 -24.258562185944474 8.809240590470381 0 -24.4924169986037 7.341866255460351 0 -24.786412314992454 5.7574947813926896 0 -25.129062263974944 4.0811505549663964 0 -25.509813027122725 2.331384028357066 0 -25.91982522910821 0.5216210492225949 0 -26.352031221004736 -1.3385454831356578 0 -26.800912260226834 -3.2423161795521 0 -27.262202627244484 -5.18490480909198 0 -27.732605765412153 -7.162971119601601 0 -28.20955044099782 -9.174216128823097 0 -28.69099023417074 -11.217098143217765 0 -29.17524010478823 -13.290638736362595 0 -29.660840803561634 -15.394297464840188 0 -30.146441502335037 -17.527901708301016 0 -30.630691372952516 -19.691624087094574 0 -31.11213116612544 -21.886005044638306 0 -31.58907584171111 -24.11202300735516 0 -32.05947897987878 -26.371219668783926 0 -32.52076934689643 -28.665894011182456 0 -32.969650386118516 -30.999386286704418 0 -33.401856378015005 -33.37648272628456 0 -33.81186858000045 -35.80398271908849 0 -34.192619343148216 -38.291479164417595 0 -34.535269292130664 -40.852397909929735 0 -34.829264608519395 -43.505289407800525 0 -35.06311942117859 -46.275178044728975 0 -35.2267664854017 -49.19423365958102 0 -35.31673728933302 -52.299786929424215 0 -35.34503732719163 -55.62509404805912 0 -35.3479467410027 -59.177728592143694 0 -35.3861053214653 -62.905501593446125 0 -35.52212373954111 -66.66796227630202 0 -35.78155611245307 -70.24601060918843 0 -22.570069762310442 15.478250443416869 0 -22.797284005455047 14.528510233234945 0 -22.933081436385276 13.750440385127458 0 -22.986952865702392 12.995237791799477 0 -22.995735976876038 12.151865355262197 0 -23.00245470926329 11.1606959235303 0 -23.040806275916385 10.005196961282572 0 -23.129652030099614 8.694932481339057 0 -23.275131900121636 7.250474943580559 0 -23.47525718036787 5.694178558777999 0 -23.724030120441427 4.0459398901516 0 -24.014102818017577 2.3219274646669184 0 -24.338204065708393 0.5346543682019955 0 -24.689775820023865 -1.3064690906461978 0 -25.06317154033974 -3.1944971022393887 0 -25.45363740914695 -5.124375727164824 0 -25.857199628992245 -7.092478577763408 0 -26.270520666298122 -9.096250198091024 0 -26.690753457862144 -11.13394263601019 0 -27.1154046985569 -13.204428871308618 0 -27.542209317592434 -15.307079360822774 0 -27.96901393662796 -17.441691843247025 0 -28.39366517732271 -19.608468579886992 0 -28.813897968886735 -21.808039113906226 0 -29.227219006192612 -24.041530465516974 0 -29.63078122603791 -26.31069058685678 0 -30.021247094845123 -28.618074933869746 0 -30.394642815160996 -30.967309894214953 0 -30.746214569476447 -33.36344940730517 0 -31.070315817167216 -35.813439282778646 0 -31.36038851474332 -38.3266898292324 0 -31.60916145481685 -40.91571413254443 0 -31.80928673506304 -43.59668071968029 0 -31.95476660508503 -46.38948615386029 0 -32.043612359268245 -49.31648464585521 0 -32.081963925921315 -52.39824865554594 0 -32.08868265830854 -55.64434219575257 0 -32.097465769482184 -59.038232731153784 0 -32.151337198799304 -62.52029310976428 0 -32.28713462972954 -65.97948623359527 0 -32.514348872874194 -69.26700899535174 0 -21.379309344637132 16.313209639231438 0 -21.57900136044666 15.146631183651937 0 -21.70897175429558 14.137113784907731 0 -21.771985904093647 13.179519780870558 0 -21.789832721326515 12.187567548143992 0 -21.792235419130655 11.10511594176675 0 -21.806580501892334 9.905475095920133 0 -21.852324764595803 8.583647204538522 0 -21.940006760283026 7.147188841670819 0 -22.072974001461105 5.6090198860645595 0 -22.249847963760907 3.983012845744449 0 -22.46665881282167 2.2818066390804663 0 -22.71832084470136 0.5160015787947242 0 -22.999517223868754 -1.3059327840998292 0 -23.305165227843364 -3.1774398701699926 0 -23.63061809738826 -5.093560923814273 0 -23.9717147948232 -7.050622225151493 0 -24.32474817197051 -9.045965140496506 0 -24.686392845028134 -11.077731057942017 0 -25.053615342104795 -13.144701089160234 0 -25.42357783162322 -15.24618631713591 0 -25.793540321141652 -17.381964061098643 0 -26.16076281821831 -19.55225700181881 0 -26.522407491275935 -21.757754056311704 0 -26.875440868423258 -23.999674112905065 0 -27.216537565858204 -26.279875783506235 0 -27.541990435403097 -28.601017701800362 0 -27.847638439377697 -30.966773587668584 0 -28.128834818545062 -33.38210219671246 0 -28.380496850424727 -35.85356010836513 0 -28.597307699485462 -38.38961687363957 0 -28.774181661785224 -41.00087280525786 0 -28.907148902963268 -43.699966821590046 0 -28.99483089865047 -46.500771430660784 0 -29.040575161353903 -49.416206511217624 0 -29.05492024411556 -52.45382863730947 0 -29.057322941919676 -55.608640002870715 0 -29.07516975915255 -58.85395074208262 0 -29.138183908950612 -62.133619709983925 0 -29.268154302799548 -65.36136528317815 0 -29.4678463186091 -68.43204979953705 0 -20.018582769693378 17.032780824599342 0 -20.194213268641484 15.69871471267219 0 -20.315511311831774 14.508556097073267 0 -20.38230483890608 13.385161859864775 0 -20.407722194781165 12.26107965634314 0 -20.41212598054592 11.086870151373455 0 -20.416639784105868 9.83286604071522 0 -20.438614621798592 8.486086669337816 0 -20.489733835738917 7.0451096033690686 0 -20.576149059251975 5.515129545714332 0 -20.699650950971836 3.9042625700558258 0 -20.859066366067854 2.2212358440848825 0 -21.05145874805288 0.474161277835274 0 -21.272999776334682 -1.3299878254371327 0 -21.519533974248567 -3.185503108429799 0 -21.786908298246466 -5.087871332979317 0 -22.071139983482684 -7.033625999229859 0 -22.368480435592904 -9.02018341432366 0 -22.675415636923702 -11.04569411091737 0 -22.988629464316805 -13.108923091945865 0 -23.30494634565402 -15.209163693332997 0 -23.621263226991246 -17.34618606388427 0 -23.934477054384363 -19.52022005479416 0 -24.24141225571515 -21.73197233013886 0 -24.538752707825378 -23.98267788698343 0 -24.822984393061606 -26.274186192671287 0 -25.090358717059498 -28.60908094006017 0 -25.336892914973365 -30.99082862900591 0 -25.55843394325514 -33.42394249767192 0 -25.750826325240137 -35.91413090336073 0 -25.910241740336136 -38.46836714932819 0 -26.033743632055952 -41.094763145608106 0 -26.12015885556898 -43.80204605989178 0 -26.171278069509267 -46.598331965861476 0 -26.193252907201973 -49.488815566422524 0 -26.1977667107619 -52.47207442770274 0 -26.202170496526644 -55.53512789467152 0 -26.227587852401715 -58.64830866308833 0 -26.294381379476025 -61.762177397818306 0 -26.415679422666326 -64.8092817541578 0 -26.59130992161447 -67.71247861416902 0 -18.52330393528187 17.656079986675206 0 -18.67752299755746 16.18949888166303 0 -18.7886762802469 14.855825493813573 0 -18.855415306141023 13.596437000441366 0 -18.8857633371935 12.357783986414574 0 -18.89372594014481 11.097319145216286 0 -18.895212007325608 9.785775320152 0 -18.904694484934993 8.406294136963638 0 -18.93328497681159 6.951742617560568 0 -18.988169555445054 5.421553452253499 0 -19.072957447892424 3.8189563374189786 0 -19.188451017623578 2.148944778594567 0 -19.333482495368965 0.41697191129849903 0 -19.505633344435143 -1.3717861058919978 0 -19.70177585669131 -3.2127843772409217 0 -19.91844361163933 -5.102233068262889 0 -20.15206329014961 -7.037096688253344 0 -20.399084294817836 -9.015035965535168 0 -20.656037547565166 -11.034331872245012 0 -20.919547512438456 -13.093813720180652 0 -21.186314859684842 -15.192802743309798 0 -21.453082206931235 -17.331076692119055 0 -21.716592171804507 -19.508857816121793 0 -21.973545424551823 -21.72682488135036 0 -22.220566429220078 -23.98614857600692 0 -22.45418610773035 -26.288547927954856 0 -22.670853862678374 -28.63636220887131 0 -22.866996374934494 -31.032626909460785 0 -23.039147224000658 -33.4811318642087 0 -23.184178701746035 -35.98642196885104 0 -23.299672271477164 -38.55367338196504 0 -23.38446016392451 -41.18833923906895 0 -23.439344742557928 -43.89541304570029 0 -23.467935234434485 -46.678124498235654 0 -23.477417712043845 -49.535906286985735 0 -23.478903779224623 -52.46162543385988 0 -23.48686638217593 -55.43842356460004 0 -23.5172144132284 -58.4370335225117 0 -23.583953439122507 -61.414908001077904 0 -23.69510672181196 -64.31849758516685 0 -23.849325784087576 -67.08917945209306 0 -16.919572230405155 18.196383591550813 0 -17.05439329343343 16.623255438529068 0 -17.154680541706544 15.174097995090507 0 -17.218705759286223 13.802892975235672 0 -17.251432028668408 12.46628952999998 0 -17.26256488536348 11.12780794727884 0 -17.263969245176515 9.759967560517289 0 -17.267296146552138 8.344403452246832 0 -17.282341202596434 6.870587164841147 0 -17.316256306352283 5.333913345574199 0 -17.37345501892834 3.7337605873968136 0 -17.45594388308639 2.0718708766342813 0 -17.563834710895467 0.35116073300283607 0 -17.695871111299954 -1.4250646861134344 0 -17.849882165537206 -3.253582763406278 0 -18.02313295833733 -5.131505718165222 0 -18.212573755566023 -7.056394104107343 0 -18.415003666640956 -9.026290057286538 0 -18.627168284523297 -11.039709640661597 0 -18.845809568632642 -13.095619140169077 0 -19.067683373715667 -15.193410192387386 0 -19.289557178798685 -17.332882112107477 0 -19.508198462908013 -19.514235584538387 0 -19.72036308079035 -21.738078973101725 0 -19.92279299186529 -24.005445991860913 0 -20.112233789093967 -26.3178205778572 0 -20.28548458189407 -28.677160595036675 0 -20.439495636131294 -31.08590548968223 0 -20.57153203653576 -33.54694304250437 0 -20.67942286434481 -36.063495870811316 0 -20.76191172850284 -38.638869131987214 0 -20.819110441078866 -41.27597934574824 0 -20.853025544834686 -43.976568498419724 0 -20.86807060087895 -46.740015182952455 0 -20.871397502254545 -49.56171404662043 0 -20.87280186206757 -52.431136631797315 0 -20.88393471876263 -55.32991802101461 0 -20.916660988144812 -58.23057754771734 0 -20.980686205724492 -61.09663549980092 0 -21.080973453997615 -63.884741028300716 0 -21.215794517025913 -66.54887584721736 0 -15.227452864993