# vtk DataFile Version 4.2
Tri2D3N
ASCII

DATASET UNSTRUCTURED_GRID
POINTS 1681 double
0 0 0 25 0 0 50 0 0 75 0 0 100 0 0 125 0 0 150 0 0 175 0 0 200 0 0 225 0 0 250 0 0 275 0 0 300 0 0 325 0 0 350 0 0 375 0 0 400 0 0 425 0 0 450 0 0 475 0 0 500 0 0 525 0 0 550 0 0 575 0 0 600 0 0 625 0 0 650 0 0 675 0 0 700 0 0 725 0 0 750 0 0 775 0 0 800 0 0 825 0 0 850 0 0 875 0 0 900 0 0 925 0 0 950 0 0 975 0 0 1000 0 0 0 25 0 25 25 0 50 25 0 75 25 0 100 25 0 125 25 0 150 25 0 175 25 0 200 25 0 225 25 0 250 25 0 275 25 0 300 25 0 325 25 0 350 25 0 375 25 0 400 25 0 425 25 0 450 25 0 475 25 0 500 25 0 525 25 0 550 25 0 575 25 0 600 25 0 625 25 0 650 25 0 675 25 0 700 25 0 725 25 0 750 25 0 775 25 0 800 25 0 825 25 0 850 25 0 875 25 0 900 25 0 925 25 0 950 25 0 975 25 0 1000 25 0 0 50 0 25 50 0 50 50 0 75 50 0 100 50 0 125 50 0 150 50 0 175 50 0 200 50 0 225 50 0 250 50 0 275 50 0 300 50 0 325 50 0 350 50 0 375 50 0 400 50 0 425 50 0 450 50 0 475 50 0 500 50 0 525 50 0 550 50 0 575 50 0 600 50 0 625 50 0 650 50 0 675 50 0 700 50 0 725 50 0 750 50 0 775 50 0 800 50 0 825 50 0 850 50 0 875 50 0 900 50 0 925 50 0 950 50 0 975 50 0 1000 50 0 0 75 0 25 75 0 50 75 0 75 75 0 100 75 0 125 75 0 150 75 0 175 75 0 200 75 0 225 75 0 250 75 0 275 75 0 300 75 0 325 75 0 350 75 0 375 75 0 400 75 0 425 75 0 450 75 0 475 75 0 500 75 0 525 75 0 550 75 0 575 75 0 600 75 0 625 75 0 650 75 0 675 75 0 700 75 0 725 75 0 750 75 0 775 75 0 800 75 0 825 75 0 850 75 0 875 75 0 900 75 0 925 75 0 950 75 0 975 75 0 1000 75 0 0 100 0 25 100 0 50 100 0 75 100 0 100 100 0 125 100 0 150 100 0 175 100 0 200 100 0 225 100 0 250 100 0 275 100 0 300 100 0 325 100 0 350 100 0 375 100 0 400 100 0 425 100 0 450 100 0 475 100 0 500 100 0 525 100 0 550 100 0 575 100 0 600 100 0 625 100 0 650 100 0 675 100 0 700 100 0 725 100 0 750 100 0 775 100 0 800 100 0 825 100 0 850 100 0 875 100 0 900 100 0 925 100 0 950 100 0 975 100 0 1000 100 0 0 125 0 25 125 0 50 125 0 75 125 0 100 125 0 125 125 0 150 125 0 175 125 0 200 125 0 225 125 0 250 125 0 275 125 0 300 125 0 325 125 0 350 125 0 375 125 0 400 125 0 425 125 0 450 125 0 475 125 0 500 125 0 525 125 0 550 125 0 575 125 0 600 125 0 625 125 0 650 125 0 675 125 0 700 125 0 725 125 0 750 125 0 775 125 0 800 125 0 825 125 0 850 125 0 875 125 0 900 125 0 925 125 0 950 125 0 975 125 0 1000 125 0 0 150 0 25 150 0 50 150 0 75 150 0 100 150 0 125 150 0 150 150 0 175 150 0 200 150 0 225 150 0 250 150 0 275 150 0 300 150 0 325 150 0 350 150 0 375 150 0 400 150 0 425 150 0 450 150 0 475 150 0 500 150 0 525 150 0 550 150 0 575 150 0 600 150 0 625 150 0 650 150 0 675 150 0 700 150 0 725 150 0 750 150 0 775 150 0 800 150 0 825 150 0 850 150 0 875 150 0 900 150 0 925 150 0 950 150 0 975 150 0 1000 150 0 0 175 0 25 175 0 50 175 0 75 175 0 100 175 0 125 175 0 150 175 0 175 175 0 200 175 0 225 175 0 250 175 0 275 175 0 300 175 0 325 175 0 350 175 0 375 175 0 400 175 0 425 175 0 450 175 0 475 175 0 500 175 0 525 175 0 550 175 0 575 175 0 600 175 0 625 175 0 650 175 0 675 175 0 700 175 0 725 175 0 750 175 0 775 175 0 800 175 0 825 175 0 850 175 0 875 175 0 900 175 0 925 175 0 950 175 0 975 175 0 1000 175 0 0 200 0 25 200 0 50 200 0 75 200 0 100 200 0 125 200 0 150 200 0 175 200 0 200 200 0 225 200 0 250 200 0 275 200 0 300 200 0 325 200 0 350 200 0 375 200 0 400 200 0 425 200 0 450 200 0 475 200 0 500 200 0 525 200 0 550 200 0 575 200 0 600 200 0 625 200 0 650 200 0 675 200 0 700 200 0 725 200 0 750 200 0 775 200 0 800 200 0 825 200 0 850 200 0 875 200 0 900 200 0 925 200 0 950 200 0 975 200 0 1000 200 0 0 225 0 25 225 0 50 225 0 75 225 0 100 225 0 125 225 0 150 225 0 175 225 0 200 225 0 225 225 0 250 225 0 275 225 0 300 225 0 325 225 0 350 225 0 375 225 0 400 225 0 425 225 0 450 225 0 475 225 0 500 225 0 525 225 0 550 225 0 575 225 0 600 225 0 625 225 0 650 225 0 675 225 0 700 225 0 725 225 0 750 225 0 775 225 0 800 225 0 825 225 0 850 225 0 875 225 0 900 225 0 925 225 0 950 225 0 975 225 0 1000 225 0 0 250 0 25 250 0 50 250 0 75 250 0 100 250 0 125 250 0 150 250 0 175 250 0 200 250 0 225 250 0 250 250 0 275 250 0 300 250 0 325 250 0 350 250 0 375 250 0 400 250 0 425 250 0 450 250 0 475 250 0 500 250 0 525 250 0 550 250 0 575 250 0 600 250 0 625 250 0 650 250 0 675 250 0 700 250 0 725 250 0 750 250 0 775 250 0 800 250 0 825 250 0 850 250 0 875 250 0 900 250 0 925 250 0 950 250 0 975 250 0 1000 250 0 0 275 0 25 275 0 50 275 0 75 275 0 100 275 0 125 275 0 150 275 0 175 275 0 200 275 0 225 275 0 250 275 0 275 275 0 300 275 0 325 275 0 350 275 0 375 275 0 400 275 0 425 275 0 450 275 0 475 275 0 500 275 0 525 275 0 550 275 0 575 275 0 600 275 0 625 275 0 650 275 0 675 275 0 700 275 0 725 275 0 750 275 0 775 275 0 800 275 0 825 275 0 850 275 0 875 275 0 900 275 0 925 275 0 950 275 0 975 275 0 1000 275 0 0 300 0 25 300 0 50 300 0 75 300 0 100 300 0 125 300 0 150 300 0 175 300 0 200 300 0 225 300 0 250 300 0 275 300 0 300 300 0 325 300 0 350 300 0 375 300 0 400 300 0 425 300 0 450 300 0 475 300 0 500 300 0 525 300 0 550 300 0 575 300 0 600 300 0 625 300 0 650 300 0 675 300 0 700 300 0 725 300 0 750 300 0 775 300 0 800 300 0 825 300 0 850 300 0 875 300 0 900 300 0 925 300 0 950 300 0 975 300 0 1000 300 0 0 325 0 25 325 0 50 325 0 75 325 0 100 325 0 125 325 0 150 325 0 175 325 0 200 325 0 225 325 0 250 325 0 275 325 0 300 325 0 325 325 0 350 325 0 375 325 0 400 325 0 425 325 0 450 325 0 475 325 0 500 325 0 525 325 0 550 325 0 575 325 0 600 325 0 625 325 0 650 325 0 675 325 0 700 325 0 725 325 0 750 325 0 775 325 0 800 325 0 825 325 0 850 325 0 875 325 0 900 325 0 925 325 0 950 325 0 975 325 0 1000 325 0 0 350 0 25 350 0 50 350 0 75 350 0 100 350 0 125 350 0 150 350 0 175 350 0 200 350 0 225 350 0 250 350 0 275 350 0 300 350 0 325 350 0 350 350 0 375 350 0 400 350 0 425 350 0 450 350 0 475 350 0 500 350 0 525 350 0 550 350 0 575 350 0 600 350 0 625 350 0 650 350 0 675 350 0 700 350 0 725 350 0 750 350 0 775 350 0 800 350 0 825 350 0 850 350 0 875 350 0 900 350 0 925 350 0 950 350 0 975 350 0 1000 350 0 0 375 0 25 375 0 50 375 0 75 375 0 100 375 0 125 375 0 150 375 0 175 375 0 200 375 0 225 375 0 250 375 0 275 375 0 300 375 0 325 375 0 350 375 0 375 375 0 400 375 0 425 375 0 450 375 0 475 375 0 500 375 0 525 375 0 550 375 0 575 375 0 600 375 0 625 375 0 650 375 0 675 375 0 700 375 0 725 375 0 750 375 0 775 375 0 800 375 0 825 375 0 850 375 0 875 375 0 900 375 0 925 375 0 950 375 0 975 375 0 1000 375 0 0 400 0 25 400 0 50 400 0 75 400 0 100 400 0 125 400 0 150 400 0 175 400 0 200 400 0 225 400 0 250 400 0 275 400 0 300 400 0 325 400 0 350 400 0 375 400 0 400 400 0 425 400 0 450 400 0 475 400 0 500 400 0 525 400 0 550 400 0 575 400 0 600 400 0 625 400 0 650 400 0 675 400 0 700 400 0 725 400 0 750 400 0 775 400 0 800 400 0 825 400 0 850 400 0 875 400 0 900 400 0 925 400 0 950 400 0 975 400 0 1000 400 0 0 425 0 25 425 0 50 425 0 75 425 0 100 425 0 125 425 0 150 425 0 175 425 0 200 425 0 225 425 0 250 425 0 275 425 0 300 425 0 325 425 0 350 425 0 375 425 0 400 425 0 425 425 0 450 425 0 475 425 0 500 425 0 525 425 0 550 425 0 575 425 0 600 425 0 625 425 0 650 425 0 675 425 0 700 425 0 725 425 0 750 425 0 775 425 0 800 425 0 825 425 0 850 425 0 875 425 0 900 425 0 925 425 0 950 425 0 975 425 0 1000 425 0 0 450 0 25 450 0 50 450 0 75 450 0 100 450 0 125 450 0 150 450 0 175 450 0 200 450 0 225 450 0 250 450 0 275 450 0 300 450 0 325 450 0 350 450 0 375 450 0 400 450 0 425 450 0 450 450 0 475 450 0 500 450 0 525 450 0 550 450 0 575 450 0 600 450 0 625 450 0 650 450 0 675 450 0 700 450 0 725 450 0 750 450 0 775 450 0 800 450 0 825 450 0 850 450 0 875 450 0 900 450 0 925 450 0 950 450 0 975 450 0 1000 450 0 0 475 0 25 475 0 50 475 0 75 475 0 100 475 0 125 475 0 150 475 0 175 475 0 200 475 0 225 475 0 250 475 0 275 475 0 300 475 0 325 475 0 350 475 0 375 475 0 400 475 0 425 475 0 450 475 0 475 475 0 500 475 0 525 475 0 550 475 0 575 475 0 600 475 0 625 475 0 650 475 0 675 475 0 700 475 0 725 475 0 750 475 0 775 475 0 800 475 0 825 475 0 850 475 0 875 475 0 900 475 0 925 475 0 950 475 0 975 475 0 1000 475 0 0 500 0 25 500 0 50 500 0 75 500 0 100 500 0 125 500 0 150 500 0 175 500 0 200 500 0 225 500 0 250 500 0 275 500 0 300 500 0 325 500 0 350 500 0 375 500 0 400 500 0 425 500 0 450 500 0 475 500 0 500 500 0 525 500 0 550 500 0 575 500 0 600 500 0 625 500 0 650 500 0 675 500 0 700 500 0 725 500 0 750 500 0 775 500 0 800 500 0 825 500 0 850 500 0 875 500 0 900 500 0 925 500 0 950 500 0 975 500 0 1000 500 0 0 525 0 25 525 0 50 525 0 75 525 0 100 525 0 125 525 0 150 525 0 175 525 0 200 525 0 225 525 0 250 525 0 275 525 0 300 525 0 325 525 0 350 525 0 375 525 0 400 525 0 425 525 0 450 525 0 475 525 0 500 525 0 525 525 0 550 525 0 575 525 0 600 525 0 625 525 0 650 525 0 675 525 0 700 525 0 725 525 0 750 525 0 775 525 0 800 525 0 825 525 0 850 525 0 875 525 0 900 525 0 925 525 0 950 525 0 975 525 0 1000 525 0 0 550 0 25 550 0 50 550 0 75 550 0 100 550 0 125 550 0 150 550 0 175 550 0 200 550 0 225 550 0 250 550 0 275 550 0 300 550 0 325 550 0 350 550 0 375 550 0 400 550 0 425 550 0 450 550 0 475 550 0 500 550 0 525 550 0 550 550 0 575 550 0 600 550 0 625 550 0 650 550 0 675 550 0 700 550 0 725 550 0 750 550 0 775 550 0 800 550 0 825 550 0 850 550 0 875 550 0 900 550 0 925 550 0 950 550 0 975 550 0 1000 550 0 0 575 0 25 575 0 50 575 0 75 575 0 100 575 0 125 575 0 150 575 0 175 575 0 200 575 0 225 575 0 250 575 0 275 575 0 300 575 0 325 575 0 350 575 0 375 575 0 400 575 0 425 575 0 450 575 0 475 575 0 500 575 0 525 575 0 550 575 0 575 575 0 600 575 0 625 575 0 650 575 0 675 575 0 700 575 0 725 575 0 750 575 0 775 575 0 800 575 0 825 575 0 850 575 0 875 575 0 900 575 0 925 575 0 950 575 0 975 575 0 1000 575 0 0 600 0 25 600 0 50 600 0 75 600 0 100 600 0 125 600 0 150 600 0 175 600 0 200 600 0 225 600 0 250 600 0 275 600 0 300 600 0 325 600 0 350 600 0 375 600 0 400 600 0 425 600 0 450 600 0 475 600 0 500 600 0 525 600 0 550 600 0 575 600 0 600 600 0 625 600 0 650 600 0 675 600 0 700 600 0 725 600 0 750 600 0 775 600 0 800 600 0 825 600 0 850 600 0 875 600 0 900 600 0 925 600 0
[...]
POINT_DATA 1681

VECTORS displacement double
0 0 0 -8.194269756111375 8.51020059386742 0 -13.373739668888385 10.957442319822826 0 -17.09909814206093 11.505392675892919 0 -19.93259756071194 11.21216796057159 0 -22.185990480958825 10.474067975198277 0 -24.04726188371432 9.46990887904291 0 -25.633953437394702 8.290963587054575 0 -27.02217957272839 6.988551016809532 0 -28.263083870702612 5.593815697004862 0 -29.392309538496026 4.1267760329823995 0 -30.43555280714161 2.600834491475032 0 -31.411905122979032 1.0252125612844205 0 -32.33592955941206 -0.5936365369243084 0 -33.218997705741096 -2.251156426650884 0 -34.070183789626384 -3.9441231549358493 0 -34.89688679291104 -5.670266312272415 0 -35.705281426693794 -7.428008981378782 0 -36.50065946491663 -9.216288030741579 0 -37.287700394630576 -11.034431751113308 0 -38.070697277646865 -12.882080898473413 0 -38.85375617677966 -14.759144929137507 0 -39.640983358417536 -16.66578919175354 0 -40.43667264758169 -18.602451999474606 0 -41.24550531605436 -20.569893476708828 0 -42.07277672543958 -22.569281428881506 0 -42.92466808157862 -24.602323919301504 0 -43.80858915701128 -26.67146483243826 0 -44.73363077197847 -28.780169355845945 0 -45.71118801142203 -30.933344623725255 0 -46.75585359865342 -33.13797390429211 0 -47.8867483607026 -35.40410552121106 0 -49.12957554192513 -37.74646192737587 0 -50.51989884004085 -40.18719001174671 0 -52.108518064854465 -42.76081969873946 0 -53.97044487043656 -45.5237052774881 0 -56.2199231128233 -48.57298606388993 0 -59.03490669026484 -52.086630531121536 0 -62.69362620021107 -56.411730610966686 0 -67.61861371986679 -62.257940444423234 0 -74.45979084974856 -70.90177271776938 0 -13.448491159595696 4.1866826248462115 0 -14.907657747107475 9.388370816290413 0 -16.642650096704344 11.506087359411637 0 -18.46791396609842 12.018896250931947 0 -20.224730044739943 11.703132898162288 0 -21.844168767640493 10.931792853897932 0 -23.313226685836177 9.89022152429712 0 -24.643571361245602 8.675495278663545 0 -25.854782375577827 7.341547148653177 0 -26.96699148984965 5.920162517404842 0 -27.998199808110986 4.43109856341018 0 -28.963637691396272 2.887181146924954 0 -29.875912458696313 1.2970086252535111 0 -30.74539960019138 -0.33352988184921195 0 -31.580662646013653 -2.0003517530357127 0 -32.38882904579892 -3.7006153141088327 0 -33.17590651141898 -5.432350051893584 0 -33.947044819204095 -7.1942075199823 0 -34.70675384492155 -8.985291297188738 0 -35.45908895210836 -10.805042021802128 0 -36.20781358760279 -12.653163407017443 0 -36.956547520374514 -14.529581090497665 0 -37.70890809870263 -16.43443012181553 0 -38.46865134556408 -18.368069902412657 0 -39.23981969942295 -20.33112813416539 0 -40.02690375472476 -22.32457835993669 0 -40.8350264802961 -24.34985963552482 0 -41.67016007153469 -26.409052729443943 0 -42.53938762399376 -28.50513671771694 0 -43.451223469279775 -30.6423662006049 0 -44.41600514929561 -32.82683921288346 0 -45.446360979637234 -35.06738304440723 0 -46.55772589666336 -37.376999547652915 0 -47.76879090623083 -39.77534979662665 0 -49.10154841383081 -42.29327307121724 0 -50.58005471868115 -44.98148702169127 0 -52.22576510891856 -47.928277698719015 0 -54.044416754586734 -51.297378213632335 0 -55.99273245706723 -55.41386158707077 0 -57.889048903431146 -60.98774991883179 0 -58.9352009183254 -70.20792072321977 0 -18.168928620187163 6.713491473157248 0 -18.669660499188048 9.914984627326866 0 -19.237373433364038 11.61955352082098 0 -20.0093081103006 12.130146038420692 0 -20.937891415075555 11.878338912131944 0 -21.943959866851262 11.157283961867842 0 -22.967726577555137 10.143106012289909 0 -23.97408362643556 8.93892873685699 0 -24.946043097834142 7.605563369773393 0 -25.877678097999635 6.1796548750835525 0 -26.769104322323507 4.683903874937892 0 -27.62340795371769 3.132773254050793 0 -28.444916311368633 1.5357090801327573 0 -29.238286630451185 -0.10099867429355817 0 -30.008061628994447 -1.7731075006584192 0 -30.758480433149863 -3.477738829753441 0 -31.493424711728764 -5.212942427645979 0 -32.216434172775486 -6.977411154648848 0 -32.93075632928897 -8.77029125685609 0 -33.6394123588084 -10.591056741966778 0 -34.345270006392774 -12.439429596306878 0 -35.05111930782405 -14.315335431375962 0 -35.75974936667166 -16.218889172209327 0 -36.47402551092339 -18.150409058043905 0 -37.19696633697494 -20.11046043032994 0 -37.931819499718 -22.099934268572095 0 -38.68213335872377 -24.120170029329177 0 -39.45181801153447 -26.173139288729978 0 -40.245182335001765 -28.261718158996267 0 -41.06692051710487 -30.390096552577333 0 -41.92199672823078 -32.56440916493321 0 -42.815329949443274 -34.793742716331536 0 -43.751094507688705 -37.09180941730706 0 -44.731295519877676 -39.479844879783116 0 -45.753009832661384 -41.991825408188966 0 -46.803271498601696 -44.68417097119495 0 -47.85013601986328 -47.65419367553165 0 -48.82875971706546 -51.0754322163372 0 -49.626066980620976 -55.264296669232394 0 -50.10123996261772 -60.78661531611117 0 -50.678872817545134 -67.94940443444895 0 -20.22233878667801 8.747119222496284 0 -20.534651556122522 10.524919908982158 0 -20.749090572523738 11.693765402967866 0 -21.05372004034125 12.08718585680008 0 -21.501131094718364 11.862055344998115 0 -22.072962055823584 11.19952129269485 0 -22.73095415555149 10.238317537142835 0 -23.439543206434422 9.073046676325554 0 -24.172342358259446 7.765555994609824 0 -24.912012435840218 6.355774329302091 0 -25.648192187972043 4.869518318398081 0 -26.375333899890098 3.323615397771758 0 -27.090996199249943 1.7291468519612296 0 -27.794646307546998 0.09348022456962235 0 -28.48687250457502 -1.5784517013977235 0 -29.168888548674712 -3.2833362341254055 0 -29.842233323870442 -5.01895372199927 0 -30.50859645725032 -6.783831596976885 0 -31.169723386699605 -8.577015481545002 0 -31.8273696089271 -10.397918841341783 0 -32.48328460309787 -12.246228109886216 0 -33.139212668887566 -14.121849825651449 0 -33.79690184119975 -16.02489266832488 0 -34.45811394017027 -17.955681954670915 0 -35.12462908760714 -19.91480824904121 0 -35.79823671383255 -21.903216185329335 0 -36.480701861767486 -23.92234543469531 0 -37.173689676848916 -25.974344505897445 0 -37.87862093084783 -28.062392255227095 0 -38.59641498308019 -30.1911860475758 0 -39.32705043993627 -32.36769738142276 0 -40.06883409139731 -34.60236951267675 0 -40.81721390863134 -36.911061060412756 0 -41.562913077924506 -39.31826132712059 0 -42.289156260742224 -41.862457607935355 0 -42.968010132071456 -44.60500036189864 0 -43.55702082874737 -47.643995685821956 0 -44.001478675045675 -51.132498794005045 0 -44.26205856991612 -55.28433080424172 0 -44.43791701121456 -60.26086200109608 0 -44.88972940553497 -65.87070879843246 0 -21.0156969987097 10.41018300256646 0 -21.281042924230537 11.217911260460516 0 -21.402734342877835 11.857358886934767 0 -21.52348076666697 12.044575542462901 0 -21.724391685560438 11.777623288539646 0 -22.028483803123088 11.14040114694039 0 -22.427297818848068 10.22394507218847 0 -22.900860046029543 9.102830731544191 0 -23.428201318142403 7.832188052956952 0 -23.99161372240205 6.450920957187549 0 -24.577666594848512 4.985890320533592 0 -25.176841765261514 3.4554664153734502 0 -25.782738519319587 1.872171081614716 0 -26.39126568911413 0.24453366242854505 0 -26.999968488069918 -1.421638491162499 0 -27.607516919796 -3.1223989168171613 0 -28.213336600217016 -4.855079593159764 0 -28.81735069875706 -6.617896821067058 0 -29.41980300000229 -8.409685331440091 0 -30.021137466109618 -10.229721555753589 0 -30.62191528018834 -12.07761125205171 0 -31.222754813516747 -13.953226386682994 0 -31.824282954310604 -15.856683059114884 0 -32.427087771300236 -17.788357610682993 0 -33.031662602700365 -19.748942895161434 0 -33.63833030237329 -21.739551949736907 0 -34.24713333074323 -23.761883063539425 0 -34.857670289864686 -25.818469961484496 0 -35.46885196483253 -27.91305569179433 0 -36.078539863710034 -30.051152148027903 0 -36.68301895230551 -32.240883748673774 0 -37.27624929546724 -34.49426937927925 0 -37.84885555867397 -36.82917415587829 0 -38.38689438581935 -39.27224689795762 0 -38.87070207037311 -41.863167612264164 0 -39.274840568487235 -44.660156342401606 0 -39.57192770146283 -47.744949031367725 0 -39.7470157635609 -51.21938183064187 0 -39.83442646047062 -55.16927743899905 0 -39.96317637470012 -59.56965014690699 0 -40.33802641960046 -64.1496352083938 0 -21.09241477898435 11.781835150867634 0 -21.336345475933612 11.932697914380032 0 -21.442605828073376 12.114456124808637 0 -21.501663680089006 12.060763016575141 0 -21.587830031596734 11.69847858421608 0 -21.740292255954607 11.045500285196864 0 -21.970581994281073 10.150048892438948 0 -22.274370000708338 9.062999272391295 0 -22.640423124164634 7.827836265175089 0 -23.05590113592923 6.478514910923971 0 -23.508956417820354 5.040336623726644 0 -23.989718070381766 3.531664237459807 0 -24.49043760279248 1.965617489119098 0 -25.005263916019974 0.3514763745714043 0 -25.529897571670986 -1.304243831300481 0 -26.06124311740218 -2.997001105518257 0 -26.597106742065293 -4.723656825716884 0 -27.135950947272708 -6.4820715657936425 0 -27.676702055213266 -8.270822690019079 0 -28.218600494084036 -10.089011847352571 0 -28.761082503536795 -11.936140400353946 0 -29.303682352548073 -13.812038642130853 0 -29.84594495530067 -15.716840858714413 0 -30.387339239324177 -17.651003536102394 0 -30.92716245798456 -19.61536897201766 0 -31.46442472095039 -21.611281949203438 0 -31.9977013551895 -23.640773774213176 0 -32.52493855833705 -25.706836859620488 0 -33.04319598120323 -27.81382525606161 0 -33.54831051161969 -29.96803311237025 0 -34.0344737228907 -32.178523690766646 0 -34.493742646272146 -34.458301411271464 0 -34.91557417026245 -36.82591986486907 0 -35.28663661950797 -39.307544538268374 0 -35.59149761541457 -41.93919398115741 0 -35.815444128294395 -44.76801849071827 0 -35.9516834690768 -47.84934905063355 0 -36.01553296531342 -51.232285407341855 0 -36.06248113824195 -54.92501768050494 0 -36.191999386561434 -58.84033702394752 0 -36.50959472497245 -62.738719582417126 0 -20.71370769265782 12.92826720902045 0 -20.93879701075343 12.625532617136486 0 -21.04774121169319 12.434784789247855 0 -21.092933730839015 12.143159236548282 0 -21.131599310193213 11.656359266982118 0 -21.2040191992413 10.95468085713169 0 -21.331105865788498 10.054494472167455 0 -21.519222075708864 8.984995516569276 0 -21.765924671998764 7.77657229996547 0 -22.064423556263122 6.455966357823503 0 -22.406444845866954 5.044885420798887 0 -22.78382681624459 3.560162092526901 0 -23.189274725443077 2.0144808688676603 0 -23.61661880226854 0.4172175702730177 0 -24.06080853261391 -1.2247964111900727 0 -24.51778510289413 -2.9066444732689405 0 -24.984311009669177 -4.624833374963377 0 -25.457796658178985 -6.376922994818935 0 -25.936141035190214 -8.161255633414159 0 -26.4175911528984 -9.976765191349065 0 -26.900618624239318 -11.822850779874162 0 -27.383808696582047 -13.699303983677073 0 -27.865755693306603 -15.606283492205502 0 -28.34495816745838 -17.544335108385983 0 -28.81970670552504 -19.51445944755198 0 -29.28795712492713 -21.51823427918232 0 -29.74718202617524 -23.55800377766136 0 -30.194195033465288 -25.63715314448139 0 -30.62494621620593 -27.7604938821659 0 -31.034297395468144 -29.93479087323748 0 -31.415808525234667 -32.16946252103909 0 -31.76161231236477 -34.477467146208205 0 -32.062542205699465 -36.876323749709826 0 -32.30883407264742 -39.38904162231478 0 -32.49196025401956 -42.04433528664036 0 -32.60840979591702 -44.87471556944299 0 -32.666111453085506 -47.9098643221013 0 -32.692517944339045 -51.162079710196046 0 -32.73911692889718 -54.602716225054145 0 -32.87278435404693 -58.13421107286782 0 -33.145529714618235 -61.56845038622119 0 -20.021588463406587 13.899577374784947 0 -20.22712129567111 13.273688345459481 0 -20.33923293001797 12.786943840045522 0 -20.386441643087196 12.279084014499936 0 -20.40928421471878 11.658291167362135 0 -20.442601656986575 10.887089926824492 0 -20.50956455700622 9.961065893631641 0 -20.62218627093845 8.892290619574004 0 -20.78417259875032 7.69902128500126 0 -20.993954026477596 6.400164832064044 0 -21.247092436530682 5.012723722243992 0 -21.53792509272295 3.550903406325315 0 -21.86056805033383 2.0260546387469884 0 -22.209460279983073 0.44698037892198256 0 -22.579609603180447 -1.179640112208808 0 -22.96665996214362 -2.848829324145835 0 -23.36686002720266 -4.5569421023379055 0 -23.776982714687737 -6.301364517170411 0 -24.194224119358818 -8.08028082542874 0 -24.6160967411919 -9.892502335684746 0 -25.04032351616508 -11.737350897783948 0 -25.464734243517313 -13.614590977650392 0 -25.887163261006584 -15.52440656947814 0 -26.30534585548142 -17.467421959712613 0 -26.716810512116307 -19.444768361347318 0 -27.1187646743668 -21.458201572560498 0 -27.507973590361267 -23.510278886051285 0 -27.88063599691318 -25.604605922820422 0 -28.23226860802426 -27.746164444489487 0 -28.557626644440248 -29.941727202163168 0 -28.85071465613821 -32.20034849188687 0 -29.1049869317029 -34.53387545995042 0 -29.313905360189764 -36.95733035568668 0 -29.472109940330725 -39.48882936219494 0 -29.57752035480588 -42.14839041546715 0 -29.63458230541021 -44.95456939806303 0 -29.658280239811646 -47.91762645768512 0 -29.6771567514608 -51.02848734827488 0 -29.73184703953994 -54.24463619695479 0 -29.86511609395038 -57.47683027213741 0 -30.10160223715891 -60.582919829923675 0 -19.100686351997 14.731740676055784 0 -19.286396885692163 13.867730659235717 0 -19.398120571963656 13.147022432789866 0 -19.450486879060637 12.45106909055804 0 -19.47093792167489 11.69938046329788 0 -19.487157934361683 10.848590085211335 0 -19.520787782484703 9.882231296335968 0 -19.58583889106272 8.800165409763544 0 -19.689546786497885 7.610652097567633 0 -19.834073589124678 6.325273247201928 0 -20.01822015923589 4.956043870732263 0 -20.238812540109112 3.5139649794599457 0 -20.49169533410037 2.0084384274040055 0 -20.77238012025113 0.4471538170678689 0 -21.07643097522394 -1.1637927817963827 0 -21.39966623147915 -2.8196867337712543 0 -21.738239743973047 -4.516964048804991 0 -22.088647345394623 -6.2529990458040325 0 -22.447689200896836 -8.02592673638343 0 -22.812407492529367 -9.834505395510014 0 -23.180010983861212 -11.678019838780548 0 -23.547792846705363 -13.556224266653844 0 -23.913045005336105 -15.469323657332454 0 -24.272970688393574 -17.417993714725142 0 -24.6245966447979 -19.40344075293938 0 -24.96468763509426 -21.42750415623404 0 -25.289668750400086 -23.4928045717575 0 -25.595566651631763 -25.602939681453194 0 -25.877990274373147 -27.762724216856626 0 -26.132186695667468 -29.97845808315819 0 -26.353230526819985 -32.25817957525173 0 -26.53643561080145 -34.61180956234729 0 -26.678110174254016 -37.05100414724178 0 -26.77678914727514 -39.58839883226326 0 -26.83501525613961 -42.23576513552435 0 -26.861503322578166 -45.00050362197708 0 -26.873013488881213 -47.88006552043366 0 -26.89456221569559 -50.854546057449134 0 -26.95615078402381 -53.87882786898881 0 -27.084624606183414 -56.87692874862017 0 -27.290945888722412 -59.74215478444822 0 -18.005439683101116 15.45017442192368 0 -18.171764672484947 14.405190961355318 0 -18.279554989131363 13.498834688990174 0 -18.335732538778817 12.64302292327434 0 -18.358406846705233 11.770321268635499 0 -18.368565826754807 10.837736109900758 0 -18.38475523328151 9.822765592975337 0 -18.420776675685094 8.717271666892184 0 -18.485391867062024 7.521922966516852 0 -18.583036015347147 6.242070135834049 0 -18.714867777063404 4.885030947194412 0 -18.879792486622563 3.4584691875153957 0 -19.075305024115856 1.9695247839602412 0 -19.298116462986652 0.4244181111596281 0 -19.544584080967635 -1.1716683381976718 0 -19.810983847423596 -2.814560130094497 0 -20.093666040095968 -4.5009928884968575 0 -20.38912870597643 -6.228493089215277 0 -20.69403575806016 -7.995263776772785 0 -21.00519911025964 -9.800088853384073 0 -21.319538326578144 -11.642262555510632 0 -21.63402697638945 -13.521547092040139 0 -21.945632140200505 -15.438159781363874 0 -22.25125215724974 -17.392790445477743 0 -22.547657695189883 -19.38664958363924 0 -22.831442657554486 -21.421547279929136 0 -23.098994622822676 -23.50000105249473 0 -23.34649991143804 -25.625366661408723 0 -23.57000656923438 -27.801977261931103 0 -23.76557984286322 -30.035260176794566 0 -23.929598269369112 -32.33177277914058 0 -24.059250400245904 -34.699055021409684 0 -24.15329187769888 -37.14513447901624 0 -24.213087959606884 -39.67745007488293 0 -24.243862094983736 -42.300917995201864 0 -24.255862904791357 -45.01491903472681 0 -24.26486626562464 -47.80922930153558 0 -24.29117431881715 -50.659385598386066 0 -24.356294709884853 -53.52259347528194 0 -24.477001492800454 -56.335861287906035 0 -24.657543962742913 -59.01838379619448 0 -16.77322189349993 16.072883425913098 0 -16.92098474117155 14.88682070641918 0 -17.022212366533786 13.83206214702477 0 -17.079707709198672 12.842039061070814 0 -17.1052542718538 11.861184947586414 0 -17.114340620323986 10.849700261174824 0 -17.12208954749534 9.782805285522732 0 -17.14096280252215 8.647548805306707 0 -17.179924633999953 7.439196076445434 0 -17.24452122432181 6.15813948068464 0 -17.33741087031578 4.807602742733531 0 -17.459035714651925 3.392089531368171 0 -17.608263771185786 1.9164166405745855 0 -17.78292499141208 0.3851619539644207 0 -17.980221090103548 -1.197614302663978 0 -18.197017239176844 -2.8284800427321675 0 -18.43003524184136 -4.504646089181521 0 -18.675970135864265 -6.22393279919755 0 -18.931550221781574 -7.9847184003131355 0 -19.193557058795356 -9.785887049142481 0 -19.458818471035283 -11.626787060760908 0 -19.72418474039979 -13.507205110910068 0 -19.98649621156262 -15.42735940578209 0 -20.24254961342246 -17.38791299625109 0 -20.489070585181505 -19.390006862080842 0 -20.722701286340875 -21.43531038558167 0 -20.940014702060562 -23.52608351821358 0 -21.137571424335256 -25.66523919196922 0 -21.31204015124412 -27.856384847515898 0 -21.460409077352114 -30.10380654926649 0 -21.580319416606148 -32.41233644717221 0 -21.670549352151607 -34.787014421536526 0 -21.731657285366285 -37.232422503888884 0 -21.76674351176091 -39.75155059836961 0 -21.782196369299548 -42.344072036859764 0 -21.788155377347216 -45.00400451527685 0 -21.798290336120598 -47.71693242171949 0 -21.828448339452358 -50.457258010121514 0 -21.893865232601676 -53.18626602864797 0 -22.0050396407488 -55.85203081960304 0 -22.16300540580989 -58.39227425289616 0 -15.43115106876561 16.61276992641789 0 -15.561292693831337 15.314634223433936 0 -15.65421736224196 14.140362011076592 0 -15.710615998158477 13.038423111596561 0 -15.73809964748 11.963050274965132 0 -15.747925764862316 10.878555282789014 0 -15.752052854053328 9.760021246426446 0 -15.76115852329521 8.591897823399746 0 -15.783636385708286 7.36581779350475 0 -15.825323656656291 6.078425158895595 0 -15.889672432673258 4.7295680650276335 0 -15.978134554452424 3.3209454218780006 0 -16.09060742235219 1.8551678683591863 0 -16.225854127830885 0.3351478852135334 0 -16.381857551171546 -1.2362702430647325 0 -16.556096533340003 -2.856516789133057 0 -16.745747651952172 -4.523397820788571 0 -16.94782316269313 -6.235133460865695 0 -17.15925784911186 -7.990362079426061 0 -17.376957241266584 -9.788129473829441 0 -17.597818395334464 -11.627875110076552 0 -17.818733029889763 -13.509422675550663 0 -18.03658176390633 -15.432978816250444 0 -18.248227752442578 -17.3991413439872 0 -18.450518307166902 -19.408915780765547 0 -18.640304184905382 -21.463736224253392 0 -18.814488101085082 -23.565482465950353 0 -18.97011646284588 -25.716479273608297 0 -19.104530714271156 -27.91945493440574 0 -19.215595695995304 -30.177423963365698 0 -19.302019457541807 -32.493443639680955 0 -19.363767735084103 -34.870178224596 0 -19.402550979723486 -37.30919475134542 0 -19.422316976466462 -39.80992194138716 0 -19.429617930730466 -42.368245168679486 0 -19.43365111543276 -44.97479971927466 0 -19.445729466848032 -47.613163516813756 0 -19.477969484178153 -50.25831855358744 0 -19.541129894065204 -52.87590509052397 0 -19.64180789771202 -55.422881587030815 0 -19.77956893559322 -57.85017692606759 0 -13.999850435570771 17.0792176