# vtk DataFile Version 4.2
Tri2D3N
ASCII

DATASET UNSTRUCTURED_GRID
POINTS 1681 float
0 0 0 25 0 0 50 0 0 75 0 0 100 0 0 125 0 0 150 0 0 175 0 0 200 0 0 225 0 0 250 0 0 275 0 0 300 0 0 325 0 0 350 0 0 375 0 0 400 0 0 425 0 0 450 0 0 475 0 0 500 0 0 525 0 0 550 0 0 575 0 0 600 0 0 625 0 0 650 0 0 675 0 0 700 0 0 725 0 0 750 0 0 775 0 0 800 0 0 825 0 0 850 0 0 875 0 0 900 0 0 925 0 0 950 0 0 975 0 0 1000 0 0 0 25 0 25 25 0 50 25 0 75 25 0 100 25 0 125 25 0 150 25 0 175 25 0 200 25 0 225 25 0 250 25 0 275 25 0 300 25 0 325 25 0 350 25 0 375 25 0 400 25 0 425 25 0 450 25 0 475 25 0 500 25 0 525 25 0 550 25 0 575 25 0 600 25 0 625 25 0 650 25 0 675 25 0 700 25 0 725 25 0 750 25 0 775 25 0 800 25 0 825 25 0 850 25 0 875 25 0 900 25 0 925 25 0 950 25 0 975 25 0 1000 25 0 0 50 0 25 50 0 50 50 0 75 50 0 100 50 0 125 50 0 150 50 0 175 50 0 200 50 0 225 50 0 250 50 0 275 50 0 300 50 0 325 50 0 350 50 0 375 50 0 400 50 0 425 50 0 450 50 0 475 50 0 500 50 0 525 50 0 550 50 0 575 50 0 600 50 0 625 50 0 650 50 0 675 50 0 700 50 0 725 50 0 750 50 0 775 50 0 800 50 0 825 50 0 850 50 0 875 50 0 900 50 0 925 50 0 950 50 0 975 50 0 1000 50 0 0 75 0 25 75 0 50 75 0 75 75 0 100 75 0 125 75 0 150 75 0 175 75 0 200 75 0 225 75 0 250 75 0 275 75 0 300 75 0 325 75 0 350 75 0 375 75 0 400 75 0 425 75 0 450 75 0 475 75 0 500 75 0 525 75 0 550 75 0 575 75 0 600 75 0 625 75 0 650 75 0 675 75 0 700 75 0 725 75 0 750 75 0 775 75 0 800 75 0 825 75 0 850 75 0 875 75 0 900 75 0 925 75 0 950 75 0 975 75 0 1000 75 0 0 100 0 25 100 0 50 100 0 75 100 0 100 100 0 125 100 0 150 100 0 175 100 0 200 100 0 225 100 0 250 100 0 275 100 0 300 100 0 325 100 0 350 100 0 375 100 0 400 100 0 425 100 0 450 100 0 475 100 0 500 100 0 525 100 0 550 100 0 575 100 0 600 100 0 625 100 0 650 100 0 675 100 0 700 100 0 725 100 0 750 100 0 775 100 0 800 100 0 825 100 0 850 100 0 875 100 0 900 100 0 925 100 0 950 100 0 975 100 0 1000 100 0 0 125 0 25 125 0 50 125 0 75 125 0 100 125 0 125 125 0 150 125 0 175 125 0 200 125 0 225 125 0 250 125 0 275 125 0 300 125 0 325 125 0 350 125 0 375 125 0 400 125 0 425 125 0 450 125 0 475 125 0 500 125 0 525 125 0 550 125 0 575 125 0 600 125 0 625 125 0 650 125 0 675 125 0 700 125 0 725 125 0 750 125 0 775 125 0 800 125 0 825 125 0 850 125 0 875 125 0 900 125 0 925 125 0 950 125 0 975 125 0 1000 125 0 0 150 0 25 150 0 50 150 0 75 150 0 100 150 0 125 150 0 150 150 0 175 150 0 200 150 0 225 150 0 250 150 0 275 150 0 300 150 0 325 150 0 350 150 0 375 150 0 400 150 0 425 150 0 450 150 0 475 150 0 500 150 0 525 150 0 550 150 0 575 150 0 600 150 0 625 150 0 650 150 0 675 150 0 700 150 0 725 150 0 750 150 0 775 150 0 800 150 0 825 150 0 850 150 0 875 150 0 900 150 0 925 150 0 950 150 0 975 150 0 1000 150 0 0 175 0 25 175 0 50 175 0 75 175 0 100 175 0 125 175 0 150 175 0 175 175 0 200 175 0 225 175 0 250 175 0 275 175 0 300 175 0 325 175 0 350 175 0 375 175 0 400 175 0 425 175 0 450 175 0 475 175 0 500 175 0 525 175 0 550 175 0 575 175 0 600 175 0 625 175 0 650 175 0 675 175 0 700 175 0 725 175 0 750 175 0 775 175 0 800 175 0 825 175 0 850 175 0 875 175 0 900 175 0 925 175 0 950 175 0 975 175 0 1000 175 0 0 200 0 25 200 0 50 200 0 75 200 0 100 200 0 125 200 0 150 200 0 175 200 0 200 200 0 225 200 0 250 200 0 275 200 0 300 200 0 325 200 0 350 200 0 375 200 0 400 200 0 425 200 0 450 200 0 475 200 0 500 200 0 525 200 0 550 200 0 575 200 0 600 200 0 625 200 0 650 200 0 675 200 0 700 200 0 725 200 0 750 200 0 775 200 0 800 200 0 825 200 0 850 200 0 875 200 0 900 200 0 925 200 0 950 200 0 975 200 0 1000 200 0 0 225 0 25 225 0 50 225 0 75 225 0 100 225 0 125 225 0 150 225 0 175 225 0 200 225 0 225 225 0 250 225 0 275 225 0 300 225 0 325 225 0 350 225 0 375 225 0 400 225 0 425 225 0 450 225 0 475 225 0 500 225 0 525 225 0 550 225 0 575 225 0 600 225 0 625 225 0 650 225 0 675 225 0 700 225 0 725 225 0 750 225 0 775 225 0 800 225 0 825 225 0 850 225 0 875 225 0 900 225 0 925 225 0 950 225 0 975 225 0 1000 225 0 0 250 0 25 250 0 50 250 0 75 250 0 100 250 0 125 250 0 150 250 0 175 250 0 200 250 0 225 250 0 250 250 0 275 250 0 300 250 0 325 250 0 350 250 0 375 250 0 400 250 0 425 250 0 450 250 0 475 250 0 500 250 0 525 250 0 550 250 0 575 250 0 600 250 0 625 250 0 650 250 0 675 250 0 700 250 0 725 250 0 750 250 0 775 250 0 800 250 0 825 250 0 850 250 0 875 250 0 900 250 0 925 250 0 950 250 0 975 250 0 1000 250 0 0 275 0 25 275 0 50 275 0 75 275 0 100 275 0 125 275 0 150 275 0 175 275 0 200 275 0 225 275 0 250 275 0 275 275 0 300 275 0 325 275 0 350 275 0 375 275 0 400 275 0 425 275 0 450 275 0 475 275 0 500 275 0 525 275 0 550 275 0 575 275 0 600 275 0 625 275 0 650 275 0 675 275 0 700 275 0 725 275 0 750 275 0 775 275 0 800 275 0 825 275 0 850 275 0 875 275 0 900 275 0 925 275 0 950 275 0 975 275 0 1000 275 0 0 300 0 25 300 0 50 300 0 75 300 0 100 300 0 125 300 0 150 300 0 175 300 0 200 300 0 225 300 0 250 300 0 275 300 0 300 300 0 325 300 0 350 300 0 375 300 0 400 300 0 425 300 0 450 300 0 475 300 0 500 300 0 525 300 0 550 300 0 575 300 0 600 300 0 625 300 0 650 300 0 675 300 0 700 300 0 725 300 0 750 300 0 775 300 0 800 300 0 825 300 0 850 300 0 875 300 0 900 300 0 925 300 0 950 300 0 975 300 0 1000 300 0 0 325 0 25 325 0 50 325 0 75 325 0 100 325 0 125 325 0 150 325 0 175 325 0 200 325 0 225 325 0 250 325 0 275 325 0 300 325 0 325 325 0 350 325 0 375 325 0 400 325 0 425 325 0 450 325 0 475 325 0 500 325 0 525 325 0 550 325 0 575 325 0 600 325 0 625 325 0 650 325 0 675 325 0 700 325 0 725 325 0 750 325 0 775 325 0 800 325 0 825 325 0 850 325 0 875 325 0 900 325 0 925 325 0 950 325 0 975 325 0 1000 325 0 0 350 0 25 350 0 50 350 0 75 350 0 100 350 0 125 350 0 150 350 0 175 350 0 200 350 0 225 350 0 250 350 0 275 350 0 300 350 0 325 350 0 350 350 0 375 350 0 400 350 0 425 350 0 450 350 0 475 350 0 500 350 0 525 350 0 550 350 0 575 350 0 600 350 0 625 350 0 650 350 0 675 350 0 700 350 0 725 350 0 750 350 0 775 350 0 800 350 0 825 350 0 850 350 0 875 350 0 900 350 0 925 350 0 950 350 0 975 350 0 1000 350 0 0 375 0 25 375 0 50 375 0 75 375 0 100 375 0 125 375 0 150 375 0 175 375 0 200 375 0 225 375 0 250 375 0 275 375 0 300 375 0 325 375 0 350 375 0 375 375 0 400 375 0 425 375 0 450 375 0 475 375 0 500 375 0 525 375 0 550 375 0 575 375 0 600 375 0 625 375 0 650 375 0 675 375 0 700 375 0 725 375 0 750 375 0 775 375 0 800 375 0 825 375 0 850 375 0 875 375 0 900 375 0 925 375 0 950 375 0 975 375 0 1000 375 0 0 400 0 25 400 0 50 400 0 75 400 0 100 400 0 125 400 0 150 400 0 175 400 0 200 400 0 225 400 0 250 400 0 275 400 0 300 400 0 325 400 0 350 400 0 375 400 0 400 400 0 425 400 0 450 400 0 475 400 0 500 400 0 525 400 0 550 400 0 575 400 0 600 400 0 625 400 0 650 400 0 675 400 0 700 400 0 725 400 0 750 400 0 775 400 0 800 400 0 825 400 0 850 400 0 875 400 0 900 400 0 925 400 0 950 400 0 975 400 0 1000 400 0 0 425 0 25 425 0 50 425 0 75 425 0 100 425 0 125 425 0 150 425 0 175 425 0 200 425 0 225 425 0 250 425 0 275 425 0 300 425 0 325 425 0 350 425 0 375 425 0 400 425 0 425 425 0 450 425 0 475 425 0 500 425 0 525 425 0 550 425 0 575 425 0 600 425 0 625 425 0 650 425 0 675 425 0 700 425 0 725 425 0 750 425 0 775 425 0 800 425 0 825 425 0 850 425 0 875 425 0 900 425 0 925 425 0 950 425 0 975 425 0 1000 425 0 0 450 0 25 450 0 50 450 0 75 450 0 100 450 0 125 450 0 150 450 0 175 450 0 200 450 0 225 450 0 250 450 0 275 450 0 300 450 0 325 450 0 350 450 0 375 450 0 400 450 0 425 450 0 450 450 0 475 450 0 500 450 0 525 450 0 550 450 0 575 450 0 600 450 0 625 450 0 650 450 0 675 450 0 700 450 0 725 450 0 750 450 0 775 450 0 800 450 0 825 450 0 850 450 0 875 450 0 900 450 0 925 450 0 950 450 0 975 450 0 1000 450 0 0 475 0 25 475 0 50 475 0 75 475 0 100 475 0 125 475 0 150 475 0 175 475 0 200 475 0 225 475 0 250 475 0 275 475 0 300 475 0 325 475 0 350 475 0 375 475 0 400 475 0 425 475 0 450 475 0 475 475 0 500 475 0 525 475 0 550 475 0 575 475 0 600 475 0 625 475 0 650 475 0 675 475 0 700 475 0 725 475 0 750 475 0 775 475 0 800 475 0 825 475 0 850 475 0 875 475 0 900 475 0 925 475 0 950 475 0 975 475 0 1000 475 0 0 500 0 25 500 0 50 500 0 75 500 0 100 500 0 125 500 0 150 500 0 175 500 0 200 500 0 225 500 0 250 500 0 275 500 0 300 500 0 325 500 0 350 500 0 375 500 0 400 500 0 425 500 0 450 500 0 475 500 0 500 500 0 525 500 0 550 500 0 575 500 0 600 500 0 625 500 0 650 500 0 675 500 0 700 500 0 725 500 0 750 500 0 775 500 0 800 500 0 825 500 0 850 500 0 875 500 0 900 500 0 925 500 0 950 500 0 975 500 0 1000 500 0 0 525 0 25 525 0 50 525 0 75 525 0 100 525 0 125 525 0 150 525 0 175 525 0 200 525 0 225 525 0 250 525 0 275 525 0 300 525 0 325 525 0 350 525 0 375 525 0 400 525 0 425 525 0 450 525 0 475 525 0 500 525 0 525 525 0 550 525 0 575 525 0 600 525 0 625 525 0 650 525 0 675 525 0 700 525 0 725 525 0 750 525 0 775 525 0 800 525 0 825 525 0 850 525 0 875 525 0 900 525 0 925 525 0 950 525 0 975 525 0 1000 525 0 0 550 0 25 550 0 50 550 0 75 550 0 100 550 0 125 550 0 150 550 0 175 550 0 200 550 0 225 550 0 250 550 0 275 550 0 300 550 0 325 550 0 350 550 0 375 550 0 400 550 0 425 550 0 450 550 0 475 550 0 500 550 0 525 550 0 550 550 0 575 550 0 600 550 0 625 550 0 650 550 0 675 550 0 700 550 0 725 550 0 750 550 0 775 550 0 800 550 0 825 550 0 850 550 0 875 550 0 900 550 0 925 550 0 950 550 0 975 550 0 1000 550 0 0 575 0 25 575 0 50 575 0 75 575 0 100 575 0 125 575 0 150 575 0 175 575 0 200 575 0 225 575 0 250 575 0 275 575 0 300 575 0 325 575 0 350 575 0 375 575 0 400 575 0 425 575 0 450 575 0 475 575 0 500 575 0 525 575 0 550 575 0 575 575 0 600 575 0 625 575 0 650 575 0 675 575 0 700 575 0 725 575 0 750 575 0 775 575 0 800 575 0 825 575 0 850 575 0 875 575 0 900 575 0 925 575 0 950 575 0 975 575 0 1000 575 0 0 600 0 25 600 0 50 600 0 75 600 0 100 600 0 125 600 0 150 600 0 175 600 0 200 600 0 225 600 0 250 600 0 275 600 0 300 600 0 325 600 0 350 600 0 375 600 0 400 600 0 425 600 0 450 600 0 475 600 0 500 600 0 525 600 0 550 600 0 575 600 0 600 600 0 625 600 0 650 600 0 675 600 0 700 600 0 725 600 0 750 600 0 775 600 0 800 600 0 825 600 0 850 600 0 875 600 0 900 600 0 925 600 0 
[...]
POINT_DATA 1681

VECTORS displacement float
0 0 0 -8.179484 8.513308 0 -13.34939 10.964598 0 -17.068247 11.517044 0 -19.89701 11.228381 0 -22.146746 10.494807 0 -24.005056 9.495138 0 -25.589252 8.320655 0 -26.975325 7.0226636 0 -28.21433 5.6323104 0 -29.341873 4.169654 0 -30.383606 2.648087 0 -31.358603 1.0768352 0 -32.2814 -0.53764534 0 -33.163322 -2.1908069 0 -34.01346 -3.8794196 0 -34.839165 -5.6012044 0 -35.64665 -7.354574 0 -36.44116 -9.138483 0 -37.227383 -10.952244 0 -38.0096 -12.795503 0 -38.791935 -14.668133 0 -39.57849 -16.570353 0 -40.37358 -18.502594 0 -41.18195 -20.465614 0 -42.008778 -22.46063 0 -42.86025 -24.489286 0 -43.743797 -26.554039 0 -44.66851 -28.658384 0 -45.6458 -30.80723 0 -46.690254 -33.00753 0 -47.820976 -35.269432 0 -49.063644 -37.607616 0 -50.453804 -40.04414 0 -52.042274 -42.613503 0 -53.9041 -45.372154 0 -56.153465 -48.41727 0 -58.968315 -51.926796 0 -62.626938 -56.247658 0 -67.551865 -62.08962 0 -74.393005 -70.729225 0 -13.4294405 4.1898856 0 -14.886216 9.391689 0 -16.617445 11.512642 0 -18.438852 12.02971 0 -20.192156 11.718491 0 -21.808523 10.9517355 0 -23.274908 9.914733 0 -24.6029 8.704542 0 -25.812033 7.375081 0 -26.922413 5.958145 0 -27.951977 4.4735107 0 -28.915934 2.934015 0 -29.826878 1.348251 0 -30.69514 -0.27789122 0 -31.529282 -1.9403244 0 -32.33641 -3.6362112 0 -33.12251 -5.3635697 0 -33.89274 -7.1210394 0 -34.65159 -8.907737 0 -35.403122 -10.723092 0 -36.1511 -12.5668 0 -36.89913 -14.438775 0 -37.650856 -16.33917 0 -38.41001 -18.268383 0 -39.180656 -20.227007 0 -39.96727 -22.216063 0 -40.774944 -24.23695 0 -41.609695 -26.29174 0 -42.478554 -28.383444 0 -43.390114 -30.516323 0 -44.354664 -32.69645 0 -45.384815 -34.93275 0 -46.495995 -37.238213 0 -47.70692 -39.63234 0 -49.039543 -42.145992 0 -50.517918 -44.82997 0 -52.16349 -47.772594 0 -53.982033 -51.13757 0 -55.93028 -55.249813 0 -57.826496 -60.819477 0 -58.872627 -70.03538 0 -18.143728 6.719056 0 -18.644085 9.919962 0 -19.210468 11.626809 0 -19.980461 12.14104 0 -20.906857 11.893444 0 -21.910707 11.17682 0 -22.932365 10.1671505 0 -23.936739 8.967495 0 -24.90685 7.638626 0 -25.836836 6.217198 0 -26.726765 4.725915 0 -27.579687 3.179235 0 -28.399923 1.5866041 0 -29.19211 -0.04568983 0 -29.960793 -1.7133839 0 -30.710192 -3.4136212 0 -31.444197 -5.1444287 0 -32.166313 -6.904499 0 -32.879803 -8.692978 0 -33.58769 -10.509323 0 -34.292828 -12.353268 0 -34.998016 -14.224716 0 -35.706036 -16.123808 0 -36.41974 -18.050894 0 -37.14214 -20.00651 0 -37.876526 -21.991568 0 -38.626392 -24.007393 0 -39.395653 -26.05595 0 -40.18862 -28.14011 0 -41.009975 -30.264158 0 -41.864784 -32.434162 0 -42.757935 -34.659214 0 -43.69357 -36.953064 0 -44.673653 -39.33688 0 -45.695263 -41.844597 0 -46.745396 -44.532722 0 -47.792137 -47.498558 0 -48.770683 -50.915638 0 -49.567917 -55.10029 0 -50.04305 -60.61839 0 -50.620674 -67.776855 0 -20.19483 8.753804 0 -20.507212 10.531481 0 -20.721277 11.702189 0 -21.025024 12.098728 0 -21.471184 11.877408 0 -22.041548 11.219049 0 -22.698004 10.2621975 0 -23.405064 9.101363 0 -24.136372 7.798327 0 -24.874622 6.3930073 0 -25.609463 4.91122 0 -26.335348 3.3697736 0 -27.049826 1.779744 0 -27.752384 0.14850405 0 -28.443577 -1.5190034 0 -29.124619 -3.2194777 0 -29.797054 -4.950685 0 -30.462574 -6.7111487 0 -31.122927 -8.499912 0 -31.779833 -10.316385 0 -32.43506 -12.160252 0 -33.090332 -14.0314045 0 -33.747433 -15.929994 0 -34.408085 -17.856339 0 -35.074085 -19.81101 0 -35.74722 -21.795008 0 -36.429253 -23.809711 0 -37.121822 -25.857286 0 -37.826347 -27.940903 0 -38.54381 -30.065332 0 -39.27416 -32.237556 0 -40.015675 -34.467945 0 -40.763897 -36.77236 0 -41.509495 -39.175327 0 -42.23565 -41.715275 0 -42.91438 -44.453598 0 -43.503277 -47.488407 0 -43.94766 -50.972744 0 -44.208176 -55.12034 0 -44.384003 -60.092644 0 -44.8358 -65.698204 0 -20.987753 10.417409 0 -21.253252 11.225702 0 -21.374933 11.866972 0 -21.49535 12.057009 0 -21.6956 11.793539 0 -21.99878 11.160225 0 -22.396551 10.247943 0 -22.868975 9.131125 0 -23.395153 7.8648515 0 -23.957396 6.487981 0 -24.542307 5.0273924 0 -25.140358 3.5013988 0 -25.74519 1.9225343 0 -26.352734 0.29933032 0 -26.960487 -1.3624163 0 -27.567127 -3.0587633 0 -28.17211 -4.7870173 0 -28.775331 -6.545408 0 -29.377033 -8.332772 0 -29.977661 -10.148379 0 -30.577785 -11.991809 0 -31.177994 -13.86296 0 -31.77894 -15.761959 0 -32.381207 -17.689173 0 -32.985283 -19.645313 0 -33.591507 -21.631483 0 -34.199886 -23.649384 0 -34.810024 -25.701538 0 -35.42082 -27.791706 0 -36.030163 -29.92543 0 -36.63438 -32.11086 0 -37.227386 -34.359936 0 -37.799812 -36.690517 0 -38.337696 -39.129375 0 -38.821384 -41.71606 0 -39.225433 -44.50882 0 -39.522423 -47.589397 0 -39.697414 -51.059654 0 -39.78476 -55.005318 0 -39.913486 -59.40144 0 -40.288338 -63.977142 0 -21.065142 11.789349 0 -21.309217 11.941406 0 -21.415602 12.125128 0 -21.474598 12.074129 0 -21.560461 11.715108 0 -21.712404 11.065827 0 -21.942017 10.174363 0 -22.244997 9.091463 0 -22.61016 7.860554 0 -23.02471 6.5155554 0 -23.47682 5.0817523 0 -23.956636 3.5774705 0 -24.456417 2.0158324 0 -24.970345 0.4061037 0 -25.494093 -1.245205 0 -26.024635 -2.933534 0 -26.559704 -4.655768 0 -27.09779 -6.409754 0 -27.637821 -8.194081 0 -28.17909 -10.007831 0 -28.720963 -11.850508 0 -29.262983 -13.721942 0 -29.80469 -15.62228 0 -30.345545 -17.55198 0 -30.884912 -19.511879 0 -31.42175 -21.50334 0 -31.95462 -23.528393 0 -32.481472 -25.590015 0 -32.99936 -27.692593 0 -33.504154 -29.842407 0 -33.99005 -32.0486 0 -34.44912 -34.32405 0 -34.870743 -36.687374 0 -35.24168 -39.164753 0 -35.546417 -41.792152 0 -35.770275 -44.616734 0 -35.90642 -47.693832 0 -35.970203 -51.072575 0 -36.017097 -54.761078 0 -36.14659 -58.672123 0 -36.464165 -62.56625 0 -20.687847 12.935962 0 -20.913069 12.63494 0 -21.02217 12.446354 0 -21.067425 12.157417 0 -21.105984 11.673766 0 -21.178123 10.975626 0 -21.30478 10.079255 0 -21.492342 9.0137615 0 -21.738386 7.80948 0 -22.036171 6.4931107 0 -22.377436 5.086327 0 -22.754038 3.6059337 0 -23.15868 2.0646162 0 -23.585243 0.4717349 0 -24.028675 -1.1658739 0 -24.484898 -2.8433125 0 -24.950693 -4.557087 0 -25.423483 -6.30475 0 -25.901163 -8.084652 0 -26.382017 -9.895718 0 -26.864471 -11.737362 0 -27.347124 -13.609353 0 -27.828539 -15.511868 0 -28.30723 -17.445446 0 -28.781532 -19.41109 0 -29.249367 -21.410402 0 -29.708206 -23.445732 0 -30.154865 -25.520447 0 -30.5853 -27.63937 0 -30.994373 -29.809248 0 -31.375645 -32.03961 0 -31.721241 -34.343292 0 -32.02199 -36.73786 0 -32.268143 -39.24633 0 -32.451153 -41.897354 0 -32.567497 -44.72347 0 -32.62509 -47.75435 0 -32.651436 -51.002377 0 -32.697987 -54.438786 0 -32.831623 -57.965984 0 -33.104378 -61.395966 0 -19.997654 13.907432 0 -20.203302 13.2836485 0 -20.315569 12.799271 0 -20.362885 12.2941475 0 -20.385729 11.676453 0 -20.418926 10.908682 0 -20.485636 9.986348 0 -20.59788 8.921449 0 -20.759415 7.732228 0 -20.968658 6.437515 0 -21.221193 5.0542836 0 -21.511385 3.596717 0 -21.833374 2.0761895 0 -22.181604 0.5014622 0 -22.551086 -1.1207885 0 -22.937475 -2.7855873 0 -23.337025 -4.489293 0 -23.74652 -6.2293034 0 -24.16315 -8.003789 0 -24.584425 -9.811581 0 -25.008108 -11.651983 0 -25.432028 -13.524768 0 -25.85397 -15.43012 0 -26.271679 -17.368654 0 -26.682692 -19.341513 0 -27.084192 -21.350477 0 -27.47301 -23.398106 0 -27.84536 -25.487982 0 -28.196718 -27.625114 0 -28.521832 -29.816257 0 -28.814713 -32.07056 0 -29.068796 -34.39975 0 -29.277546 -36.81894 0 -29.435633 -39.346157 0 -29.54093 -42.001457 0 -29.597887 -44.803368 0 -29.621496 -47.762142 0 -29.640285 -50.868813 0 -29.694933 -54.080715 0 -29.828203 -57.308567 0 -30.0647 -60.410423 0 -19.079037 14.739744 0 -19.264847 13.878141 0 -19.376709 13.159993 0 -19.429209 12.466852 0 -19.449724 11.718248 0 -19.465912 10.870832 0 -19.499409 9.908065 0 -19.56424 8.829792 0 -19.66763 7.6442227 0 -19.811749 6.3628907 0 -19.995426 4.9977975 0 -20.215506 3.559905 0 -20.467848 2.058638 0 -20.747978 0.50165665 0 -21.051466 -1.104954 0 -21.37413 -2.7564836 0 -21.712128 -4.4493747 0 -22.061972 -6.181012 0 -22.42047 -7.949518 0 -22.784653 -9.753682 0 -23.151726 -11.592756 0 -23.519022 -13.46651 0 -23.883839 -15.375142 0 -24.24334 -17.31932 0 -24.594532 -19.300297 0 -24.934208 -21.319878 0 -25.258848 -23.380692 0 -25.564447 -25.486362 0 -25.846617 -27.641716 0 -26.100552 -29.85309 0 -26.321335 -32.128468 0 -26.504356 -34.477764 0 -26.645912 -36.91265 0 -26.744495 -39.44576 0 -26.802631 -42.088863 0 -26.829035 -44.84934 0 -26.840458 -47.72464 0 -26.861946 -50.694897 0 -26.923496 -53.71492 0 -27.051954 -56.708656 0 -27.258268 -59.569645 0 -17.986336 15.458334 0 -18.152746 14.415978 0 -18.26067 13.512362 0 -18.316978 12.659452 0 -18.339754 11.789852 0 -18.349947 10.860613 0 -18.366089 9.849178 0 -18.401968 8.74739 0 -18.46638 7.5559025 0 -18.563723 6.280013 0 -18.695166 4.9270263 0 -18.859703 3.5045943 0 -19.05481 2.0198536 0 -19.277174 0.4789984 0 -19.523169 -1.1127951 0 -19.789072 -2.751357 0 -20.071243 -4.4334254 0 -20.3662 -6.1565485 0 -20.670624 -7.9189177 0 -20.981318 -9.719341 0 -21.295177 -11.557088 0 -21.609232 -13.431922 0 -21.920422 -15.344067 0 -22.225632 -17.294212 0 -22.521646 -19.283587 0 -22.805058 -21.31399 0 -23.072283 -23.387934 0 -23.319483 -25.508804 0 -23.542732 -27.681011 0 -23.73808 -29.909964 0 -23.9019 -32.20211 0 -24.031363 -34.56506 0 -24.125257 -37.006798 0 -24.184942 -39.534824 0 -24.215654 -42.154034 0 -24.227564 -44.8638 0 -24.236492 -47.653854 0 -24.262743 -50.49977 0 -24.327862 -53.358727 0 -24.448557 -56.167645 0 -24.629053 -58.845985 0 -16.756865 16.081207 0 -16.904707 14.897948 0 -17.006063 13.846081 0 -17.063705 12.859055 0 -17.089367 11.881351 0 -17.098526 10.873189 0 -17.106285 9.809783 0 -17.125097 8.678171 0 -17.163927 7.473603 0 -17.228317 6.1964326 0 -17.320932 4.849888 0 -17.442259 3.4384513 0 -17.591139 1.9669182 0 -17.76542 0.4398598 0 -17.962332 -1.1386665 0 -18.178707 -2.765243 0 -18.41128 -4.4370723 0 -18.656761 -6.1520047 0 -18.91191 -7.9083962 0 -19.173485 -9.70519 0 -19.43833 -11.541681 0 -19.7033 -13.417651 0 -19.965227 -15.333339 0 -20.220907 -17.289404 0 -20.467085 -19.287008 0 -20.700386 -21.327812 0 -20.917385 -23.4141 0 -21.114649 -25.548782 0 -21.288893 -27.735508 0 -21.437063 -29.97856 0 -21.556795 -32.28271 0 -21.646835 -34.653072 0 -21.707806 -37.094128 0 -21.742804 -39.608963 0 -21.758163 -42.19724 0 -21.764053 -44.85292 0 -21.77415 -47.561584 0 -21.804274 -50.29769 0 -21.869669 -53.022465 0 -21.980793 -55.683956 0 -22.138718 -58.219994 0 -15.417695 16.621264 0 -15.547933 15.326106 0 -15.640995 14.154841 0 -15.697536 13.05599 0 -15.725147 11.983808 0 -15.735067 10.902625 0 -15.739241 9.787553 0 -15.748324 8.623019 0 -15.770736 7.4006696 0 -15.812292 6.1171017 0 -15.876456 4.772176 0 -15.964674 3.3675606 0 -16.076887 1.9058701 0 -16.211828 0.38999873 0 -16.36749 -1.1772194 0 -16.54137 -2.7932181 0 -16.730637 -4.4558015 0 -16.932308 -6.163203 0 -17.143345 -7.9140635 0 -17.360638 -9.70747 0 -17.581131 -11.542815 0 -17.801712 -13.419913 0 -18.019234 -15.339006 0 -18.230553 -17.30069 0 -18.432524 -19.305962 0 -18.622002 -21.356274 0 -18.795925 -23.453558 0 -18.95131 -25.600092 0 -19.085512 -27.798632 0 -19.196392 -30.05221 0 -19.282652 -32.363865 0 -19.344255 -34.736286 0 -19.382908 -37.170963 0 -19.40255 -39.667404 0 -19.409767 -42.221436 0 -19.413738 -44.823715 0 -19.425764 -47.45785 0 -19.457981 -50.098763 0 -19.521109 -52.712166 0 -19.621754 -55.25491 0 -19.759483 -57.67802 0 -13.989499 17.087917 0 -14.103019 15.702786 0 -14.18668 14.434868 0 -14.240144 13.243223 0 -14.268274 12.089829 0 -14.279189 10.943092 0 -14.282151 9.779077 0 -14.285964 8.581071 0 -14.298056 7.338389 0 -14.324031 6.0449376 0 -14.36762 4.697907 0 -14.430864 3.2966125 0 -14.514336 1.8416604 0 -14.617516 0.3343807 0 -14.739053 -1.2236032 0 -14.877002 -2.830639 0 -15.029017 -4.485188 0 -15.1924925 -6.185945 0 -15.364676 -7.931874 0 -15.542707 -9.722249 0 -15.7237 -11.556595 0 -15.904719 -13.434785 0 -16.08281 -15.357016 0 -16.25501 -17.323805 0 -16.418423 -19.335953 0 -16.570232 -21.39462 0 -16.70774 -23.501247 0 -16.828522 -25.65747 0 -16.930542 -27.865093 0 -17.012426 -30.125834 0 -17.073673 -32.44112 0 -17.11505 -34.811523 0 -17.138845 -37.236023 0 -17.149248 -39.711334 0 -17.152393 -42.230713 0 -17.15619 -44.782837 0 -17.169764 -47.350544 0 -17.202265 -49.91016 0 -17.261274 -52.431324 0 -17.350956 -54.877853 0 -17.470272 -57.21023 0 -12.488496 17.488098 0 -12.58611 16.030216 0 -12.659745 14.683944 0 -12.708629 13.415752 0 -12.735897 12.193566 0 -12.747356 10.989404 0 -12.750069 9.780721 0 -12.751165 8.550525 0 -12.756953 7.28676 0 -12.772495 5.9814534 0 -12.801457 4.629761 0 -12.846057 3.2290444 0 -12.9072895 1.7782165 0 -12.985134 0.27718487 0 -13.078755 -1.2735703 0 -13.186696 -2.873288 0 -13.307055 -4.5211043 0 -13.437653 -6.2161927 0 -13.576062 -7.9578805 0 -13.719725 -9.745645 0 -13.866036 -11.579153 0 -14.012303 -13.458349 0 -14.155873 -15.383375 0 -14.294081 -17.354624 0 -14.424329 -19.37269 0 -14.544158 -21.438408 0 -14.651307 -23.552689 0 -14.743865 -25.716494 0 -14.820374 -27.930672 0 -14.880008 -30.19576 0 -14.922819 -32.511696 0 -14.9500065 -34.87727 0 -14.964121 -37.28943 0 -14.969128 -39.742905 0 -14.97043 -42.229225 0 -14.974629 -44.735874 0 -14.988935 -47.245754 0 -15.020182 -49.73675 0 -15.073748 -52.181915 0 -15.152272 -54.550343 0 -15.254515 -56.809444 0 -10.928058 17.826962 0 -11.010451 16.310377 0 -11.073695 14.900824 0 -11.116905 13.570059 0 -11.142095 12.290488 0 -11.153397 11.037165 0 -11.156144 9.789023 0 -11.155946 8.529257 0 -11.158011 7.245076 0 -11.166745 5.927246 0 -11.185449 4.569381 0 -11.216304 3.1673214 0 -11.260527 1.7185805 0 -11.318368 0.22182056 0 -11.3893795 -1.3235033 0 -11.472508 -2.9174495 0 -11.566259 -4.559808 0 -11.668816 -6.2502275 0 -11.778148 -7.988381 0 -11.892041 -9.773964 0 -12.008202 -11.606823 0 -12.124282 -13.486905 0 -12.237944 -15.414331 0 -12.346891 -17.38934 0 -12.448898 -19.412317 0 -12.541872 -21.483795 0 -12.624016 -23.60411 0 -12.693828 -25.773577 0 -12.750298 -27.99217 0 -12.793006 -30.259453 0 -12.822398 -32.573948 0 -12.839854 -34.933002 0 -12.847804 -37.33211 0 -12.849801 -39.764538 0 -12.850419 -42.220703 0 -12.855025 -44.68741 0 -12.869135 -47.148087 0 -12.897904 -49.581997 0 -12.945115 -51.96503 0 -13.01242 -54.270386 0 -13.098627 -56.47035 0 -9.319473 18.10841 0 -9.3871975 16.544924 0 -9.439864 15.084845 0 -9.476613 13.703675 0 -9.4987335 12.377166 0 -9.509165 11.082835 0 -9.511852 9.800965 0 -9.511123 8.515162 0 -9.511157 7.212297 0 -9.5155735 5.8823147 0 -9.527215 4.517708 0 -9.548093 3.1131678 0 -9.579388 1.6650524 0 -9.62156 0.17101312 0 -9.674377 -1.3703948 0 -9.737111 -2.9599555 0 -9.808608 -4.598035 0 -9.887416 -6.284728 0 -9.971853 -8.020043 0 -10.060102 -9.803884 0 -10.150218 -11.636241 0 -10.240232 -13.517085 0 -10.32818 -15.446491 0 -10.412132 -17.424574 0 -10.490231 -19.451529 0 -10.560818 -21.5275 0 -10.62247 -23.652374 0 -10.674057 -25.825895 0 -10.714924 -28.047266 0 -10.744941 -30.315105 0 -10.764717 -32.626884 0 -10.77559 -34.97886 0 -10.779756 -37.365337 0 -10.780212 -39.77862 0 -10.780709 -42.208317 0 -10.785404 -44.64118 0 -10.798554 -47.060894 0 -10.823897 -49.448242 0 -10.864128 -51.78122 0 -10.920238 -54.036232 0 -10.991202 -56.188965 0 -7.672571 18.335361 0 -7.7260747 16.73523 0 -7.768037 15.235663 0 -7.7977715 13.814889 0 -7.8160768 12.451079 0 -7.8249865 11.123627 0 -7.827372 9.814007 0 -7.8264832 8.506326 0 -7.825516 7.187294 0 -7.827332 5.8463583 0 -7.8342385 4.475235 0 -7.847956 3.067737 0 -7.8695545 1.6193541 0 -7.8994803 0.1268901 0 -7.937675 -1.4118142 0 -7.9836383 -2.998161 0 -8.036521 -4.6330147 0 -8.095205 -6.3168664 0 -8.15836 -8.049984 0 -8.224527 -9.832485 0 -8.292158 -11.664464 0 -8.359691 -13.545927 0 -8.425528 -15.476915 0 -8.488117 -17.45745 0 -8.546014 -19.487467 0 -8.59792 -21.56683 0 -8.642781 -23.695063 0 -8.679816 -25.871296 0 -8.708562 -28.094254 0 -8.729106 -30.361643 0 -8.742053 -32.670174 0 -8.748618 -35.015278 0 -8.750586 -37.39044 0 -8.750404 -39.787205 0 -8.750967 -42.1948 0 -8.755449 -44.59991 0 -8.766947 -46.986706 0 -8.788176 -49.33708 0 -8.820992 -51.63076 0 -8.86598 -53.84645 0 -8.922314 -55.962284 0 -5.996096 18.509996 0 -6.0357165 16.882357 0 -6.0669684 15.353172 0 -6.0892925 13.902516 0 -6.1031895 12.5103245 0 -6.1100483 11.157412 0 -6.1118674 9.826171 0 -6.110949 8.501128 0 -6.1096272 7.1690345 0 -6.110012 5.818967 0 -6.11386 4.442173 0 -6.122488 3.031815 0 -6.136752 1.5827211 0 -6.1570597 0.091073304 0 -6.1834164 -1.4458569 0 -6.215494 -3.0299542 0 -6.2526913 -4.662492 0 -6.2941833 -6.3442645 0 -6.3389897 -8.075775 0 -6.3860216 -9.857305 0 -6.4341216 -11.689019 0 -6.482097 -13.570981 0 -6.5287623 -15.503173 0 -6.5729637 -17.485544 0 -6.613646 -19.517843 0 -6.6498594 -21.599642 0 -6.6808634 -23.730183 0 -6.7061267 -25.90819 0 -6.725416 -28.13184 0 -6.738859 -30.398293 0 -6.747005 -32.703617 0 -6.750788 -35.042786 0 -6.7516356 -37.408543 0 -6.7513547 -39.792004 0 -6.7520533 -42.18217 0 -6.7559896 -44.565765 0 -6.765339 -46.927372 0 -6.7819633 -49.249657 0 -6.807052 -51.513798 0 -6.8409934 -53.699947 0 -6.883139 -55.78809 0 -4.29804 18.633902 0 -4.3240075 16.987108 0 -4.344501 15.437292 0 -4.359152 13.965751 0 -4.368251 12.5536 0 -4.37267 11.182636 0 -4.373684 9.835914 0 -4.372781 8.498291 0 -4.371487 7.1566076 0 -4.3712106 5.7997284 0 -4.373119 4.4185734 0 -4.378103 3.0058835 0 -4.3867507 1.55603 0 -4.3993483 0.064751774 0 -4.4159193 -1.4710838 0 -4.436253 -3.053718 0 -4.459953 -4.6847076 0 -4.486486 -6.3650823 0 -4.5151854 -8.095507 0 -4.54532 -9.876398 0 -4.57612 -11.707963 0 -4.6067796 -13.590309 0 -4.636524 -15.523378 0 -4.6646056 -17.506985 0 -4.6903086 -19.540873 0 -4.7130466 -21.624311 0 -4.732347 -23.756317 0 -4.7479177 -25.935326 0 -4.7596297 -28.159199 0 -4.767644 -30.424652 0 -4.7723484 -32.727375 0 -4.7744 -35.06192 0 -4.77479 -37.42063 0 -4.7747054 -39.794373 0 -4.7755218 -42.171963 0 -4.7786694 -44.54024 0 -4.785513 -46.884106 0 -4.797179 -49.18683 0 -4.81439 -51.43038 0 -4.8373656 -53.59597 0 -4.8656564 -55.664814 0 -2.5858529 18.708109 0 -2.5983126 17.050028 0 -2.6080294 15.4880295 0 -2.6148288 14.004088 0 -2.6188695 12.580038 0 -2.6205866 11.198235 0 -2.6206264 9.842175 0 -2.6197422 8.496916 0 -2.6187115 7.149369 0 -2.6182353 5.788296 0 -2.618907 4.404424 0 -2.6211698 2.9902487 0 -2.6253057 1.5398655 0 -2.6314464 0.048746187 0 -2.6395862 -1.4864902 0 -2.6495998 -3.0683002 0 -2.661281 -4.6984057 0 -2.674334 -6.3779964 0 -2.6884227 -8.107827 0 -2.7031655 -9.888381 0 -2.718173 -11.71992 0 -2.7330463 -13.602526 0 -2.747397 -15.536134 0 -2.7608612 -17.520494 0 -2.7730894 -19.555305 0 -2.7838151 -21.639685 0 -2.7928412 -23.772486 0 -2.8000379 -25.952013 0 -2.8053954 -28.175829 0 -2.8090162 -30.4405 0 -2.8111293 -32.74154 0 -2.8120809 -35.0731 0 -2.8124104 -37.42741 0 -2.812678 -39.795216 0 -2.8135557 -42.165245 0 -2.8157427 -44.524384 0 -2.8198445 -46.85779 0 -2.8263493 -49.14897 0 -2.8356142 -51.380386 0 -2.8476992 -53.53387 0 -2.8623765 -55.591305 0 -0.8666761 18.733267 0 -0.8656807 17.071451 0 -0.8645944 15.505374 0 -0.8634521 14.01724 0 -0.8622918 12.589117 0 -0.8611661 11.203587 0 -0.86013514 9.84431 0 -0.8592688 8.496459 0 -0.8586031 7.1469135 0 -0.8581683 5.7844543 0 -0.8579664 4.399713 0 -0.85797554 2.985088 0 -0.8581607 1.5345763 0 -0.85847664 0.043548208 0 -0.85886604 -1.4914685 0 -0.8592792 -3.073003 0 -0.8596669 -4.702842 0 -0.85999304 -6.38221 0 -0.8602229 -8.111909 0 -0.8603336 -9.892421 0 -0.8603121 -11.724021 0 -0.8601614 -13.606775 0 -0.859883 -15.540622 0 -0.85948193 -17.525303 0 -0.8589844 -19.56043 0 -0.85844314 -21.645105 0 -0.85788983 -23.77814 0 -0.8573706 -25.957773 0 -0.85693866 -28.18147 0 -0.8566708 -30.445723 0 -0.85657275 -32.746147 0 -0.8567198 -35.07657 0 -0.85714024 -37.429356 0 -0.85781837 -39.795128 0 -0.85873854 -42.16264 0 -0.8598656 -44.51878 0 -0.8610897 -46.84887 0 -0.86236656 -49.136314 0 -0.86366284 -51.36379 0 -0.8649166 -53.513287 0 -0.8660935 -55.56694 0 0.85251623 18.709557 0 0.8669999 17.051483 0 0.878916 15.489344 0 0.88803375 14.005107 0 0.8944248 1