# vtk DataFile Version 4.2
Quad2D4N
ASCII

DATASET UNSTRUCTURED_GRID
POINTS 1681 double
0 0 0 25 0 0 50 0 0 75 0 0 100 0 0 125 0 0 150 0 0 175 0 0 200 0 0 225 0 0 250 0 0 275 0 0 300 0 0 325 0 0 350 0 0 375 0 0 400 0 0 425 0 0 450 0 0 475 0 0 500 0 0 525 0 0 550 0 0 575 0 0 600 0 0 625 0 0 650 0 0 675 0 0 700 0 0 725 0 0 750 0 0 775 0 0 800 0 0 825 0 0 850 0 0 875 0 0 900 0 0 925 0 0 950 0 0 975 0 0 1000 0 0 0 25 0 25 25 0 50 25 0 75 25 0 100 25 0 125 25 0 150 25 0 175 25 0 200 25 0 225 25 0 250 25 0 275 25 0 300 25 0 325 25 0 350 25 0 375 25 0 400 25 0 425 25 0 450 25 0 475 25 0 500 25 0 525 25 0 550 25 0 575 25 0 600 25 0 625 25 0 650 25 0 675 25 0 700 25 0 725 25 0 750 25 0 775 25 0 800 25 0 825 25 0 850 25 0 875 25 0 900 25 0 925 25 0 950 25 0 975 25 0 1000 25 0 0 50 0 25 50 0 50 50 0 75 50 0 100 50 0 125 50 0 150 50 0 175 50 0 200 50 0 225 50 0 250 50 0 275 50 0 300 50 0 325 50 0 350 50 0 375 50 0 400 50 0 425 50 0 450 50 0 475 50 0 500 50 0 525 50 0 550 50 0 575 50 0 600 50 0 625 50 0 650 50 0 675 50 0 700 50 0 725 50 0 750 50 0 775 50 0 800 50 0 825 50 0 850 50 0 875 50 0 900 50 0 925 50 0 950 50 0 975 50 0 1000 50 0 0 75 0 25 75 0 50 75 0 75 75 0 100 75 0 125 75 0 150 75 0 175 75 0 200 75 0 225 75 0 250 75 0 275 75 0 300 75 0 325 75 0 350 75 0 375 75 0 400 75 0 425 75 0 450 75 0 475 75 0 500 75 0 525 75 0 550 75 0 575 75 0 600 75 0 625 75 0 650 75 0 675 75 0 700 75 0 725 75 0 750 75 0 775 75 0 800 75 0 825 75 0 850 75 0 875 75 0 900 75 0 925 75 0 950 75 0 975 75 0 1000 75 0 0 100 0 25 100 0 50 100 0 75 100 0 100 100 0 125 100 0 150 100 0 175 100 0 200 100 0 225 100 0 250 100 0 275 100 0 300 100 0 325 100 0 350 100 0 375 100 0 400 100 0 425 100 0 450 100 0 475 100 0 500 100 0 525 100 0 550 100 0 575 100 0 600 100 0 625 100 0 650 100 0 675 100 0 700 100 0 725 100 0 750 100 0 775 100 0 800 100 0 825 100 0 850 100 0 875 100 0 900 100 0 925 100 0 950 100 0 975 100 0 1000 100 0 0 125 0 25 125 0 50 125 0 75 125 0 100 125 0 125 125 0 150 125 0 175 125 0 200 125 0 225 125 0 250 125 0 275 125 0 300 125 0 325 125 0 350 125 0 375 125 0 400 125 0 425 125 0 450 125 0 475 125 0 500 125 0 525 125 0 550 125 0 575 125 0 600 125 0 625 125 0 650 125 0 675 125 0 700 125 0 725 125 0 750 125 0 775 125 0 800 125 0 825 125 0 850 125 0 875 125 0 900 125 0 925 125 0 950 125 0 975 125 0 1000 125 0 0 150 0 25 150 0 50 150 0 75 150 0 100 150 0 125 150 0 150 150 0 175 150 0 200 150 0 225 150 0 250 150 0 275 150 0 300 150 0 325 150 0 350 150 0 375 150 0 400 150 0 425 150 0 450 150 0 475 150 0 500 150 0 525 150 0 550 150 0 575 150 0 600 150 0 625 150 0 650 150 0 675 150 0 700 150 0 725 150 0 750 150 0 775 150 0 800 150 0 825 150 0 850 150 0 875 150 0 900 150 0 925 150 0 950 150 0 975 150 0 1000 150 0 0 175 0 25 175 0 50 175 0 75 175 0 100 175 0 125 175 0 150 175 0 175 175 0 200 175 0 225 175 0 250 175 0 275 175 0 300 175 0 325 175 0 350 175 0 375 175 0 400 175 0 425 175 0 450 175 0 475 175 0 500 175 0 525 175 0 550 175 0 575 175 0 600 175 0 625 175 0 650 175 0 675 175 0 700 175 0 725 175 0 750 175 0 775 175 0 800 175 0 825 175 0 850 175 0 875 175 0 900 175 0 925 175 0 950 175 0 975 175 0 1000 175 0 0 200 0 25 200 0 50 200 0 75 200 0 100 200 0 125 200 0 150 200 0 175 200 0 200 200 0 225 200 0 250 200 0 275 200 0 300 200 0 325 200 0 350 200 0 375 200 0 400 200 0 425 200 0 450 200 0 475 200 0 500 200 0 525 200 0 550 200 0 575 200 0 600 200 0 625 200 0 650 200 0 675 200 0 700 200 0 725 200 0 750 200 0 775 200 0 800 200 0 825 200 0 850 200 0 875 200 0 900 200 0 925 200 0 950 200 0 975 200 0 1000 200 0 0 225 0 25 225 0 50 225 0 75 225 0 100 225 0 125 225 0 150 225 0 175 225 0 200 225 0 225 225 0 250 225 0 275 225 0 300 225 0 325 225 0 350 225 0 375 225 0 400 225 0 425 225 0 450 225 0 475 225 0 500 225 0 525 225 0 550 225 0 575 225 0 600 225 0 625 225 0 650 225 0 675 225 0 700 225 0 725 225 0 750 225 0 775 225 0 800 225 0 825 225 0 850 225 0 875 225 0 900 225 0 925 225 0 950 225 0 975 225 0 1000 225 0 0 250 0 25 250 0 50 250 0 75 250 0 100 250 0 125 250 0 150 250 0 175 250 0 200 250 0 225 250 0 250 250 0 275 250 0 300 250 0 325 250 0 350 250 0 375 250 0 400 250 0 425 250 0 450 250 0 475 250 0 500 250 0 525 250 0 550 250 0 575 250 0 600 250 0 625 250 0 650 250 0 675 250 0 700 250 0 725 250 0 750 250 0 775 250 0 800 250 0 825 250 0 850 250 0 875 250 0 900 250 0 925 250 0 950 250 0 975 250 0 1000 250 0 0 275 0 25 275 0 50 275 0 75 275 0 100 275 0 125 275 0 150 275 0 175 275 0 200 275 0 225 275 0 250 275 0 275 275 0 300 275 0 325 275 0 350 275 0 375 275 0 400 275 0 425 275 0 450 275 0 475 275 0 500 275 0 525 275 0 550 275 0 575 275 0 600 275 0 625 275 0 650 275 0 675 275 0 700 275 0 725 275 0 750 275 0 775 275 0 800 275 0 825 275 0 850 275 0 875 275 0 900 275 0 925 275 0 950 275 0 975 275 0 1000 275 0 0 300 0 25 300 0 50 300 0 75 300 0 100 300 0 125 300 0 150 300 0 175 300 0 200 300 0 225 300 0 250 300 0 275 300 0 300 300 0 325 300 0 350 300 0 375 300 0 400 300 0 425 300 0 450 300 0 475 300 0 500 300 0 525 300 0 550 300 0 575 300 0 600 300 0 625 300 0 650 300 0 675 300 0 700 300 0 725 300 0 750 300 0 775 300 0 800 300 0 825 300 0 850 300 0 875 300 0 900 300 0 925 300 0 950 300 0 975 300 0 1000 300 0 0 325 0 25 325 0 50 325 0 75 325 0 100 325 0 125 325 0 150 325 0 175 325 0 200 325 0 225 325 0 250 325 0 275 325 0 300 325 0 325 325 0 350 325 0 375 325 0 400 325 0 425 325 0 450 325 0 475 325 0 500 325 0 525 325 0 550 325 0 575 325 0 600 325 0 625 325 0 650 325 0 675 325 0 700 325 0 725 325 0 750 325 0 775 325 0 800 325 0 825 325 0 850 325 0 875 325 0 900 325 0 925 325 0 950 325 0 975 325 0 1000 325 0 0 350 0 25 350 0 50 350 0 75 350 0 100 350 0 125 350 0 150 350 0 175 350 0 200 350 0 225 350 0 250 350 0 275 350 0 300 350 0 325 350 0 350 350 0 375 350 0 400 350 0 425 350 0 450 350 0 475 350 0 500 350 0 525 350 0 550 350 0 575 350 0 600 350 0 625 350 0 650 350 0 675 350 0 700 350 0 725 350 0 750 350 0 775 350 0 800 350 0 825 350 0 850 350 0 875 350 0 900 350 0 925 350 0 950 350 0 975 350 0 1000 350 0 0 375 0 25 375 0 50 375 0 75 375 0 100 375 0 125 375 0 150 375 0 175 375 0 200 375 0 225 375 0 250 375 0 275 375 0 300 375 0 325 375 0 350 375 0 375 375 0 400 375 0 425 375 0 450 375 0 475 375 0 500 375 0 525 375 0 550 375 0 575 375 0 600 375 0 625 375 0 650 375 0 675 375 0 700 375 0 725 375 0 750 375 0 775 375 0 800 375 0 825 375 0 850 375 0 875 375 0 900 375 0 925 375 0 950 375 0 975 375 0 1000 375 0 0 400 0 25 400 0 50 400 0 75 400 0 100 400 0 125 400 0 150 400 0 175 400 0 200 400 0 225 400 0 250 400 0 275 400 0 300 400 0 325 400 0 350 400 0 375 400 0 400 400 0 425 400 0 450 400 0 475 400 0 500 400 0 525 400 0 550 400 0 575 400 0 600 400 0 625 400 0 650 400 0 675 400 0 700 400 0 725 400 0 750 400 0 775 400 0 800 400 0 825 400 0 850 400 0 875 400 0 900 400 0 925 400 0 950 400 0 975 400 0 1000 400 0 0 425 0 25 425 0 50 425 0 75 425 0 100 425 0 125 425 0 150 425 0 175 425 0 200 425 0 225 425 0 250 425 0 275 425 0 300 425 0 325 425 0 350 425 0 375 425 0 400 425 0 425 425 0 450 425 0 475 425 0 500 425 0 525 425 0 550 425 0 575 425 0 600 425 0 625 425 0 650 425 0 675 425 0 700 425 0 725 425 0 750 425 0 775 425 0 800 425 0 825 425 0 850 425 0 875 425 0 900 425 0 925 425 0 950 425 0 975 425 0 1000 425 0 0 450 0 25 450 0 50 450 0 75 450 0 100 450 0 125 450 0 150 450 0 175 450 0 200 450 0 225 450 0 250 450 0 275 450 0 300 450 0 325 450 0 350 450 0 375 450 0 400 450 0 425 450 0 450 450 0 475 450 0 500 450 0 525 450 0 550 450 0 575 450 0 600 450 0 625 450 0 650 450 0 675 450 0 700 450 0 725 450 0 750 450 0 775 450 0 800 450 0 825 450 0 850 450 0 875 450 0 900 450 0 925 450 0 950 450 0 975 450 0 1000 450 0 0 475 0 25 475 0 50 475 0 75 475 0 100 475 0 125 475 0 150 475 0 175 475 0 200 475 0 225 475 0 250 475 0 275 475 0 300 475 0 325 475 0 350 475 0 375 475 0 400 475 0 425 475 0 450 475 0 475 475 0 500 475 0 525 475 0 550 475 0 575 475 0 600 475 0 625 475 0 650 475 0 675 475 0 700 475 0 725 475 0 750 475 0 775 475 0 800 475 0 825 475 0 850 475 0 875 475 0 900 475 0 925 475 0 950 475 0 975 475 0 1000 475 0 0 500 0 25 500 0 50 500 0 75 500 0 100 500 0 125 500 0 150 500 0 175 500 0 200 500 0 225 500 0 250 500 0 275 500 0 300 500 0 325 500 0 350 500 0 375 500 0 400 500 0 425 500 0 450 500 0 475 500 0 500 500 0 525 500 0 550 500 0 575 500 0 600 500 0 625 500 0 650 500 0 675 500 0 700 500 0 725 500 0 750 500 0 775 500 0 800 500 0 825 500 0 850 500 0 875 500 0 900 500 0 925 500 0 950 500 0 975 500 0 1000 500 0 0 525 0 25 525 0 50 525 0 75 525 0 100 525 0 125 525 0 150 525 0 175 525 0 200 525 0 225 525 0 250 525 0 275 525 0 300 525 0 325 525 0 350 525 0 375 525 0 400 525 0 425 525 0 450 525 0 475 525 0 500 525 0 525 525 0 550 525 0 575 525 0 600 525 0 625 525 0 650 525 0 675 525 0 700 525 0 725 525 0 750 525 0 775 525 0 800 525 0 825 525 0 850 525 0 875 525 0 900 525 0 925 525 0 950 525 0 975 525 0 1000 525 0 0 550 0 25 550 0 50 550 0 75 550 0 100 550 0 125 550 0 150 550 0 175 550 0 200 550 0 225 550 0 250 550 0 275 550 0 300 550 0 325 550 0 350 550 0 375 550 0 400 550 0 425 550 0 450 550 0 475 550 0 500 550 0 525 550 0 550 550 0 575 550 0 600 550 0 625 550 0 650 550 0 675 550 0 700 550 0 725 550 0 750 550 0 775 550 0 800 550 0 825 550 0 850 550 0 875 550 0 900 550 0 925 550 0 950 550 0 975 550 0 1000 550 0 0 575 0 25 575 0 50 575 0 75 575 0 100 575 0 125 575 0 150 575 0 175 575 0 200 575 0 225 575 0 250 575 0 275 575 0 300 575 0 325 575 0 350 575 0 375 575 0 400 575 0 425 575 0 450 575 0 475 575 0 500 575 0 525 575 0 550 575 0 575 575 0 600 575 0 625 575 0 650 575 0 675 575 0 700 575 0 725 575 0 750 575 0 775 575 0 800 575 0 825 575 0 850 575 0 875 575 0 900 575 0 925 575 0 950 575 0 975 575 0 1000 575 0 0 600 0 25 600 0 50 600 0 75 600 0 100 600 0 125 600 0 150 600 0 175 600 0 200 600 0 225 600 0 250 600 0 275 600 0 300 600 0 325 600 0 350 600 0 375 600 0 400 600 0 425 600 0 450 600 0 475 600 0 500 600 0 525 600 0 550 600 0 575 600 0 600 600 0 625 600 0 650 600 0 675 600 0 700 600 0 725 600 0 750 600 0 775 600 0 800 600 0 825 600 0 850 600 0 875 600 0 900 600 0 925 600 
[...]
POINT_DATA 1681

VECTORS displacement double
0 0 0 -11.034817630277933 10.351040047807459 0 -17.393183959847942 12.264875192836277 0 -21.40065650576426 12.39500095494387 0 -24.281152641940242 11.7737171435709 0 -26.530232535088413 10.754517146168123 0 -28.380393518315525 9.486740908917746 0 -29.95817521742344 8.050046851646702 0 -31.340387406845263 6.49145860921393 0 -32.577366566165026 4.840713017683607 0 -33.70397616111094 3.1174535524094504 0 -34.7453879229853 1.335048533154374 0 -35.72037581671478 -0.4972215227563716 0 -36.64331673039714 -2.372832575211101 0 -37.525472214788536 -4.287167827757602 0 -38.37584882310874 -6.2369558871114155 0 -39.20180091812822 -8.219888922851032 0 -40.00947096805597 -10.234358789918037 0 -40.80412507406759 -12.279273953647564 0 -41.59042048290464 -14.353934413597122 0 -42.37262971919393 -16.457950542728472 0 -43.15483895548344 -18.591197385503705 0 -43.94113436432083 -20.753799897460578 0 -44.735788470333254 -22.94614770563746 0 -45.54345852026205 -25.16894081047691 0 -46.36941061528314 -27.423270746643908 0 -47.21978722360516 -29.710745659196665 0 -48.101942707998575 -32.0336733785568 0 -49.02488362168322 -34.39532529800854 0 -49.99987151541553 -36.80031821400433 0 -51.04128327729312 -39.255176166655616 0 -52.16789287224273 -41.76917967328769 0 -53.40487203156681 -44.35569705366334 0 -54.7870842209936 -47.0343717831364 0 -56.364865920107434 -49.834940697771 0 -58.21502690334164 -52.80442743242616 0 -60.46410679649848 -56.022490406927965 0 -63.34460293268571 -59.63846956745863 0 -67.35207547861783 -64.00585830146692 0 -73.71044180821585 -70.15695641839595 0 -84.74525943855932 -84.74525943807083 0 -18.42744665584092 3.9007532796577853 0 -18.269912008211577 11.138281842975765 0 -19.8962099116106 13.096509025214871 0 -22.038321935246657 13.107955432676054 0 -24.021464101221145 12.380420688489911 0 -25.76501351399051 11.274522953009644 0 -27.297041178820987 9.94020808562442 0 -28.658775023039603 8.452443858166381 0 -29.885729630782865 6.854325115416895 0 -31.005974817346765 5.172676155146523 0 -32.04136722535869 3.425060166165672 0 -33.0090106727696 1.6233515909212337 0 -33.92243701724575 -0.22425682482562706 0 -34.79249028287851 -2.1120448903853575 0 -35.62797975084662 -4.035996980816775 0 -36.4361668640428 -5.993294377918791 0 -37.223135369919 -7.981969902595917 0 -37.99407999942107 -10.0006687789813 0 -38.75353857230316 -12.048482354618633 0 -39.50558528643343 -14.12483425752721 0 -40.25399823324058 -16.229406394617037 0 -41.00241118004782 -18.36209722943369 0 -41.75445789417856 -20.523008298431506 0 -42.51391646706141 -22.71245769470049 0 -43.2848610965646 -24.931021790221475 0 -44.07182960244224 -27.17960923745077 0 -44.88001671564017 -29.45957481225528 0 -45.715506183610316 -31.77288569373041 0 -46.585559449245345 -34.12236060007707 0 -47.4989857937243 -36.512015156236544 0 -48.46662924113857 -38.94756955289833 0 -49.502021649154344 -41.4372165358236 0 -50.62226683572254 -43.992830547459086 0 -51.849221443470725 -46.631974776615216 0 -53.210955287695164 -49.38147352106264 0 -54.74298295253262 -52.28442162558237 0 -56.48653236531066 -55.41578686200637 0 -58.46967453129592 -58.92551508972305 0 -60.61178655494564 -63.17422446908537 0 -62.238084458360724 -69.36971462321982 0 -62.0805498107244 -80.8445061584593 0 -22.339026733531615 7.520233224259154 0 -22.90259016109629 10.823150484394526 0 -22.90189638788239 12.961125718412418 0 -23.486162679477445 13.250458240567838 0 -24.44923907191218 12.640986247272782 0 -25.534009952253047 11.573967169196836 0 -26.625195233678998 10.245240381368266 0 -27.67873475952975 8.75017381470956 0 -28.681401191767286 7.140406143215344 0 -29.63251094729505 5.446362456346715 0 -30.536242699536054 3.687093558048276 0 -31.398381428850307 1.8750344182494183 0 -32.22494465703796 0.01852640598115001 0 -33.02162635169036 -1.8767411835219727 0 -33.79360459425674 -3.806855014772202 0 -34.54551240605559 -5.769118843668869 0 -35.28148077115709 -7.761683800007228 0 -36.005211994976136 -9.783297848834943 0 -36.72006423228615 -11.83313438785133 0 -37.429138761268526 -13.91067628445185 0 -38.13536674728695 -16.015641118843977 0 -38.84159473330563 -18.147939256358168 0 -39.55066926228846 -20.307660331664028 0 -40.26552149959922 -22.49508676455392 0 -40.98925272341924 -24.71073568763244 0 -41.72522108852204 -26.955433703200438 0 -42.47712890032253 -29.23043284621015 0 -43.2491071428909 -31.537581986866407 0 -44.04578883754565 -33.87957736926963 0 -44.87235206573594 -36.26033232890755 0 -45.73449079505341 -38.68553616101472 0 -46.638222547298064 -41.16353023462236 0 -47.58933230282999 -43.70674951965954 0 -48.59199873507215 -46.33424482007084 0 -49.64553826092814 -49.07644122531752 0 -50.736723542360146 -51.984977409393615 0 -51.82149442270784 -55.15522130322212 0 -52.784570815149905 -58.78301228183066 0 -53.36883710675177 -63.309607775888985 0 -53.368143333538725 -69.68484598181546 0 -53.931706761102106 -77.22502621387288 0 -24.0499779668947 10.060620683852063 0 -24.41888759892096 11.442328313406138 0 -24.48721417161894 12.688108275152475 0 -24.557060369754502 13.048919355625694 0 -24.895174484126642 12.593604860011432 0 -25.45082235504825 11.635947482938095 0 -26.130409651782806 10.37220755379117 0 -26.86895686690408 8.913658133134915 0 -27.628751370043528 7.323659598471789 0 -28.389596603204456 5.639786666122754 0 -29.14142607307989 3.885250097621989 0 -29.87984069008285 2.0748912965864914 0 -30.60355854104531 0.2184489876396769 0 -31.312979474035124 -1.6775723062751293 0 -32.009379692935646 -3.6087831379232527 0 -32.69446218842196 -5.5722105025468425 0 -33.37010997276691 -7.565846571786278 0 -34.03825624195764 -9.588349892342418 0 -34.70082261258694 -11.638845143787549 0 -35.359697133321376 -13.716789967285106 0 -36.016735261333174 -15.821890233719774 0 -36.67377338934501 -17.954052939191385 0 -37.33264791007989 -20.11337108760009 0 -37.9952142807098 -22.300138808061213 0 -38.66336054990151 -24.514898459411317 0 -39.3390083342477 -26.75852536207816 0 -40.0240908297355 -29.03236096936085 0 -40.72049104863783 -31.33841310961905 0 -41.4299119816299 -33.679654787610474 0 -42.15362983259504 -36.06047545056982 0 -42.89204444960088 -38.48737962144029 0 -43.643873919479574 -40.970106024845556 0 -44.40471915264414 -43.52349606440233 0 -45.16451365578763 -46.1707605016449 0 -45.9030608709133 -48.94947405289407 0 -46.58264816765241 -51.92299709565232 0 -47.13829603857857 -55.20260269048411 0 -47.476410152954735 -58.984551166775134 0 -47.546256351092076 -63.582625219155474 0 -47.614582923789456 -69.06566815281408 0 -47.98349255581362 -74.68463875428726 0 -24.45688265736556 11.89718086267921 0 -24.80139556200848 12.261434624919225 0 -24.897312682433515 12.753218461984648 0 -24.905706297922666 12.851402531489075 0 -24.993270161444592 12.419570164311544 0 -25.23469877138853 11.543529839269661 0 -25.613071121171018 10.355483810072792 0 -26.089269242537807 8.954043725793376 0 -26.628660724420918 7.404432109482648 0 -27.206245491099633 5.748489905686007 0 -27.80540579893405 4.01316818529061 0 -28.415579036333508 2.216054379726298 0 -29.03028721930055 0.368787700505303 0 -29.64572655453661 -1.5208409924026316 0 -30.25981836572552 -3.4475781942434054 0 -30.871586671647 -5.407871775914866 0 -31.480754547633907 -7.399326475290101 0 -32.08748368563771 -9.420343245878188 0 -32.69220661144555 -11.469878571276228 0 -33.295518147093986 -13.547285362150824 0 -33.89810377537913 -15.652212334387928 0 -34.50068940366435 -17.784548334057096 0 -35.10400093931309 -19.94440451508873 0 -35.70872386512144 -22.132132161596893 0 -36.31545300312607 -24.348378362914975 0 -36.924620879114244 -26.594186635445975 0 -37.53638918503718 -28.871156025680698 0 -38.15048099622781 -31.181681795746208 0 -38.76592033146583 -33.529316074744386 0 -39.380628514435216 -35.919312367429555 0 -39.990801751837175 -38.35946153377127 0 -40.589962059674264 -40.861402785281946 0 -41.16754682635611 -43.442723553391225 0 -41.70693830824251 -46.13037490898642 0 -42.18313642961253 -48.96619779661284 0 -42.56150877939814 -52.015414739321855 0 -42.802937389344805 -55.376637386186246 0 -42.89050125286826 -59.182067990915975 0 -42.89889486835762 -63.517515032329776 0 -42.9948119887815 -68.24656184130835 0 -43.33932489342294 -72.84807857546546 0 -24.212792554855355 13.33119553982547 0 -24.509355936661137 13.080307529367975 0 -24.63598074739207 13.012918798124458 0 -24.652731666157564 12.794478302460742 0 -24.668390083517576 12.260513283157431 0 -24.75887561442006 11.396062072647453 0 -24.95112108148477 10.25577174738364 0 -25.23806034164883 8.906155684565354 0 -25.600953903774585 7.401650002812079 0 -26.020500609511387 5.781970475685523 0 -26.480651845815938 4.074847892453745 0 -26.969202451836487 2.299363351750869 0 -27.47727777005652 0.4686023651560802 0 -27.998587492805605 -1.408455798197789 0 -28.528746286536684 -3.3256445770618144 0 -29.064735049921527 -5.278733598689661 0 -29.60449776149834 -7.264834440834622 0 -30.14664723317934 -9.281996693888367 0 -30.6902515948341 -11.328933980765543 0 -31.23467765827824 -13.404841096990708 0 -31.779472289424714 -15.509277751222703 0 -32.32426692057142 -17.642104068896984 0 -32.8686929840159 -19.80345992457801 0 -33.41229734567121 -21.993785609607027 0 -33.954446817353016 -24.213886328459388 0 -34.49420952893085 -26.465048458220622 0 -35.030198292316946 -28.749222408499023 0 -35.56035708604957 -31.069296601541183 0 -36.08166680880048 -33.429501410093316 0 -36.58974212702244 -35.83600339540483 0 -37.078292733045096 -38.29778182660809 0 -37.5384439693519 -40.82792221528251 0 -37.957990675091146 -43.445505660062054 0 -38.32088423721928 -46.17826295021509 0 -38.60782349738564 -49.06590985930313 0 -38.80006896445222 -52.16288250594609 0 -38.890554495355886 -55.53569426734358 0 -38.90621291271642 -59.23899221994879 0 -38.92296383148139 -63.25781469619571 0 -39.04958864221109 -67.42768893686524 0 -39.3461520240155 -71.41406389832348 0 -23.540125494608 14.499248829664223 0 -23.799557867520996 13.840034190621218 0 -23.935576285597826 13.365231901549286 0 -23.973734866061054 12.85574193092582 0 -23.976644279872037 12.171113503086044 0 -24.00494431772988 11.259157649797682 0 -24.094915121659877 10.12744794771835 0 -24.258562185881168 8.809240590648278 0 -24.49241699853823 7.341866255654737 0 -24.78641231492464 5.757494781603614 0 -25.129062263904686 4.081150555193844 0 -25.509813027050026 2.331384028600979 0 -25.919825229033062 0.5216210494829 0 -26.35203122092715 -1.3385454828590075 0 -26.800912260146923 -3.24231617925914 0 -27.26220262716242 -5.184904808782779 0 -27.73260576532811 -7.162971119276164 0 -28.20955044091179 -9.174216128481474 0 -28.6909902340828 -11.21709814285993 0 -29.175240104698485 -13.290638735988644 0 -29.660840803470233 -15.394297464450114 0 -30.14644150224204 -17.527901707894863 0 -30.630691372858067 -19.691624086672416 0 -31.112131166029616 -21.88600504420009 0 -31.589075841614015 -24.11202300690096 0 -32.05947897978052 -26.371219668313746 0 -32.520769346797195 -28.665894010696306 0 -32.96965038601837 -30.999386286202377 0 -33.40185637791399 -33.3764827257667 0 -33.81186857989859 -35.80398271855483 0 -34.192619343045585 -38.29147916386837 0 -34.53526929202745 -40.852397909364925 0 -34.82926460841568 -43.50528940722026 0 -35.06311942107439 -46.27517804413334 0 -35.226766485297084 -49.194233658970205 0 -35.31673728922801 -52.29978692879856 0 -35.34503732708634 -55.62509404741845 0 -35.347946740897115 -59.17772859148814 0 -35.386105321359615 -62.90550159277574 0 -35.522123739435294 -66.66796227561669 0 -35.781556112347104 -70.24601060848839 0 -22.570069762257347 15.47825044350385 0 -22.797284005402897 14.528510233331678 0 -22.933081436334085 13.750440385235146 0 -22.986952865651922 12.995237791919553 0 -22.99573597682586 12.151865355395858 0 -23.00245470921281 11.160695923678553 0 -23.040806275865123 10.005196961446131 0 -23.129652030047144 8.694932481518327 0 -23.275131900067567 7.2504749437758935 0 -23.475257180312017 5.694178558989496 0 -23.72403012038361 4.045939890379341 0 -24.014102817957692 2.321927464910908 0 -24.33820406564636 0.5346543684622234 0 -24.689775819959767 -1.3064690903697298 0 -25.063171540273625 -3.194497101946685 0 -25.45363740907885 -5.124375726855933 0 -25.857199628922196 -7.092478577438352 0 -26.270520666226275 -9.096250197749809 0 -26.69075345778852 -11.133942635652808 0 -27.115404698481594 -13.204428870935125 0 -27.5422093175155 -15.307079360433177 0 -27.96901393654948 -17.441691842841347 0 -28.393665177242823 -19.60846857946529 0 -28.813897968805485 -21.808039113468475 0 -29.227219006110158 -24.041530465063182 0 -29.630781225954433 -26.310690586386922 0 -30.021247094760668 -28.618074933383962 0 -30.3946428150756 -30.96730989371323 0 -30.74621456939022 -33.36344940678776 0 -31.070315817080143 -35.81343928224552 0 -31.360388514655565 -38.32668982868344 0 -31.60916145472848 -40.91571413197991 0 -31.80928673497409 -43.59668071910037 0 -31.954766604995584 -46.389486153265054 0 -32.04361235917835 -49.3164846452448 0 -32.08196392583111 -52.3982486549205 0 -32.08868265821805 -55.644342195112195 0 -32.097465769391455 -59.03823273049845 0 -32.15133719870843 -62.52029310909416 0 -32.287134629638544 -65.97948623291046 0 -32.51434887278304 -69.2670089946522 0 -21.379309344593707 16.313209639321148 0 -21.579001360404106 15.146631183752032 0 -21.70897175425392 14.13711378501906 0 -21.771985904052723 13.179519780994175 0 -21.789832721286015 12.18756754828086 0 -21.792235419090208 11.105115941917711 0 -21.80658050185149 9.90547509608586 0 -21.85232476455415 8.5836472047195 0 -21.940006760240323 7.147188841867388 0 -22.072974001417023 5.609019886276936 0 -22.249847963715307 3.9830128459727496 0 -22.466658812774366 2.2818066393247767 0 -22.71832084465233 0.5160015790551042 0 -22.999517223817932 -1.3059327838233576 0 -23.305165227790713 -3.177439869877405 0 -23.630618097333773 -5.093560923505588 0 -23.97171479476703 -7.0506222248267205 0 -24.324748171912635 -9.045965140155603 0 -24.68639284496863 -11.07773105758504 0 -25.053615342043653 -13.144701088787173 0 -25.423577831560547 -15.246186316746755 0 -25.793540321077504 -17.381964060693363 0 -26.160762818152765 -19.552257001397525 0 -26.52240749120917 -21.75775405587438 0 -26.875440868355387 -23.9996741124516 0 -27.21653756578934 -26.2798757830367 0 -27.54199043533327 -28.601017701314916 0 -27.847638439306927 -30.96677358716734 0 -28.12883481847344 -33.382102196195454 0 -28.380496850352404 -35.8535601078324 0 -28.59730769941245 -38.38961687309106 0 -28.774181661711573 -41.00087280469381 0 -28.90714890288908 -43.69996682101048 0 -28.994830898575792 -46.500771430065974 0 -29.040575161278802 -49.41620651060747 0 -29.054920244040122 -52.45382863668423 0 -29.057322941843957 -55.60864000223064 0 -29.075169759076612 -58.85395074142774 0 -29.138183908874428 -62.13361970931427 0 -29.26815430272324 -65.36136528249375 0 -29.46784631853264 -68.4320497988381 0 -20.018582769660306 17.032780824691574 0 -20.19421326860919 15.698714712775269 0 -20.315511311800304 14.508556097187856 0 -20.38230483887536 13.385161859991616 0 -20.407722194750924 12.261079656483032 0 -20.412125980515892 11.086870151527098 0 -20.416639784075752 9.832866040883207 0 -20.43861462176804 8.486086669520637 0 -20.489733835707653 7.045109603567095 0 -20.57614905921974 5.515129545927802 0 -20.699650950938434 3.9042625702849163 0 -20.859066366033115 2.221235844329731 0 -21.051458748016667 0.4741612780959815 0 -21.27299977629689 -1.32998782516051 0 -21.519533974209242 -3.185503108137211 0 -21.78690829820557 -5.087871332670732 0 -22.071139983440215 -7.033625998905274 0 -22.36848043554888 -9.020183413983048 0 -22.67541563687813 -11.045694110560726 0 -22.988629464269767 -13.108923091573173 0 -23.304946345605536 -15.20916369294423 0 -23.621263226941416 -17.346186063479365 0 -23.934477054333264 -19.520220054373286 0 -24.24141225566287 -21.731972329701907 0 -24.538752707771984 -23.982677886530382 0 -24.82298439300714 -26.274186192202155 0 -25.090358717004094 -28.60908093957516 0 -25.336892914917097 -30.990828628505056 0 -25.55843394319809 -33.42394249715528 0 -25.75082632518238 -35.9141309028284 0 -25.910241740277648 -38.46836714878017 0 -26.033743631996913 -41.09476314504443 0 -26.120158855509416 -43.80204605931258 0 -26.171278069449286 -46.598331965267036 0 -26.193252907141563 -49.488815565812715 0 -26.197766710701124 -52.4720744270779 0 -26.2021704964656 -55.535127894031696 0 -26.22758785234045 -58.648308662433884 0 -26.29438137941454 -61.762177397149095 0 -26.41567942260467 -64.80928175347395 0 -26.591309921552625 -67.71247861347062 0 -18.523303935259634 17.65607998676977 0 -18.677522997535966 16.189498881768838 0 -18.78867628022618 14.855825493931114 0 -18.855415306120992 13.596437000571175 0 -18.885763337174026 12.357783986557312 0 -18.893725940125716 11.097319145372524 0 -18.895212007306597 9.785775320322273 0 -18.904694484915787 8.406294137148375 0 -18.933284976791906 6.951742617760159 0 -18.988169555424633 5.42155345246821 0 -19.072957447871158 3.8189563376490367 0 -19.188451017601274 2.148944778840122 0 -19.333482495345464 0.41697191155967683 0 -19.50563334441036 -1.3717861056150844 0 -19.701775856665137 -3.2127843769482007 0 -19.918443611611735 -5.102233067954294 0 -20.152063290120605 -7.037096687928873 0 -20.39908429478746 -9.015035965194743 0 -20.6560375475334 -11.034331871888622 0 -20.91954751240531 -13.093813719808269 0 -21.1863148596504 -15.192802742921364 0 -21.453082206895516 -17.331076691714543 0 -21.716592171767598 -19.508857815701315 0 -21.973545424513805 -21.72682488091378 0 -22.220566429180938 -23.986148575554303 0 -22.45418610769015 -26.288547927486174 0 -22.670853862637227 -28.63636220838671 0 -22.866996374892622 -31.03262690896037 0 -23.03914722395804 -33.48113186369252 0 -23.184178701702628 -35.98642196831913 0 -23.299672271433217 -38.553673381417504 0 -23.384460163880004 -41.188339238505726 0 -23.439344742512933 -43.89541304512152 0 -23.467935234389035 -46.67812449764165 0 -23.477417711997997 -49.53590628637648 0 -23.478903779178438 -52.46162543323547 0 -23.48686638212943 -55.43842356396061 0 -23.517214413181676 -58.43703352185764 0 -23.583953439075586 -61.41490800040916 0 -23.695106721764844 -64.3184975844835 0 -23.849325784040314 -67.08917945139522 0 -16.919572230394145 18.19638359164759 0 -17.054393293423104 16.62325543863744 0 -17.154680541696955 15.17409799521076 0 -17.218705759277338 13.802892975368248 0 -17.251432028660126 12.466289530145422 0 -17.262564885355633 11.127807947437558 0 -17.263969245168866 9.759967560689795 0 -17.267296146544417 8.34440345243353 0 -17.28234120258851 6.870587165042381 0 -17.316256306343895 5.333913345790254 0 -17.373455018919298 3.733760587627945 0 -17.45594388307651 2.0718708768806597 0 -17.563834710884596 0.3511607332646128 0 -17.695871111287985 -1.425064685836126 0 -17.849882165524043 -3.2535827631133323 0 -18.023132958322908 -5.131505717856561 0 -18.212573755550306 -7.056394103782898 0 -18.415003666624024 -9.02629005694625 0 -18.6271682845051 -11.039709640305416 0 -18.84580956861323 -13.095619139796923 0 -19.067683373695065 -15.193410191999238 0 -19.28955717877692 -17.332882111703356 0 -19.508198462885133 -19.51423558411826 0 -19.72036308076635 -21.738078972665523 0 -19.9227929918403 -24.00544599140869 0 -20.11223378906805 -26.31782057738898 0 -20.285484581867284 -28.67716059455251 0 -20.439495636103715 -31.08590548918218 0 -20.57153203650744 -33.546943041988634 0 -20.679422864315853 -36.063495870279866 0 -20.7619117284733 -38.63886913144003 0 -20.81911044104881 -41.27597934518545 0 -20.853025544804172 -43.976568497841406 0 -20.868070600847968 -46.7400151823589 0 -20.871397502223207 -49.56171404601169 0 -20.87280186203588 -52.43113663117334 0 -20.88393471873062 -55.329918020375736 0 -20.91666098811256 -58.230577547063696 0 -20.980686205692027 -61.09663549913265 0 -21.08097345396493 -63.884741027617764 0 -21.215794516993057 -66.54887584652013 0 -15.227452864994067 18.663188757732215 0 -15.34441949707779 17.003587404