# vtk DataFile Version 4.2
Tri2D3N
ASCII

DATASET UNSTRUCTURED_GRID
POINTS 1681 double
0 0 0 25 0 0 50 0 0 75 0 0 100 0 0 125 0 0 150 0 0 175 0 0 200 0 0 225 0 0 250 0 0 275 0 0 300 0 0 325 0 0 350 0 0 375 0 0 400 0 0 425 0 0 450 0 0 475 0 0 500 0 0 525 0 0 550 0 0 575 0 0 600 0 0 625 0 0 650 0 0 675 0 0 700 0 0 725 0 0 750 0 0 775 0 0 800 0 0 825 0 0 850 0 0 875 0 0 900 0 0 925 0 0 950 0 0 975 0 0 1000 0 0 0 25 0 25 25 0 50 25 0 75 25 0 100 25 0 125 25 0 150 25 0 175 25 0 200 25 0 225 25 0 250 25 0 275 25 0 300 25 0 325 25 0 350 25 0 375 25 0 400 25 0 425 25 0 450 25 0 475 25 0 500 25 0 525 25 0 550 25 0 575 25 0 600 25 0 625 25 0 650 25 0 675 25 0 700 25 0 725 25 0 750 25 0 775 25 0 800 25 0 825 25 0 850 25 0 875 25 0 900 25 0 925 25 0 950 25 0 975 25 0 1000 25 0 0 50 0 25 50 0 50 50 0 75 50 0 100 50 0 125 50 0 150 50 0 175 50 0 200 50 0 225 50 0 250 50 0 275 50 0 300 50 0 325 50 0 350 50 0 375 50 0 400 50 0 425 50 0 450 50 0 475 50 0 500 50 0 525 50 0 550 50 0 575 50 0 600 50 0 625 50 0 650 50 0 675 50 0 700 50 0 725 50 0 750 50 0 775 50 0 800 50 0 825 50 0 850 50 0 875 50 0 900 50 0 925 50 0 950 50 0 975 50 0 1000 50 0 0 75 0 25 75 0 50 75 0 75 75 0 100 75 0 125 75 0 150 75 0 175 75 0 200 75 0 225 75 0 250 75 0 275 75 0 300 75 0 325 75 0 350 75 0 375 75 0 400 75 0 425 75 0 450 75 0 475 75 0 500 75 0 525 75 0 550 75 0 575 75 0 600 75 0 625 75 0 650 75 0 675 75 0 700 75 0 725 75 0 750 75 0 775 75 0 800 75 0 825 75 0 850 75 0 875 75 0 900 75 0 925 75 0 950 75 0 975 75 0 1000 75 0 0 100 0 25 100 0 50 100 0 75 100 0 100 100 0 125 100 0 150 100 0 175 100 0 200 100 0 225 100 0 250 100 0 275 100 0 300 100 0 325 100 0 350 100 0 375 100 0 400 100 0 425 100 0 450 100 0 475 100 0 500 100 0 525 100 0 550 100 0 575 100 0 600 100 0 625 100 0 650 100 0 675 100 0 700 100 0 725 100 0 750 100 0 775 100 0 800 100 0 825 100 0 850 100 0 875 100 0 900 100 0 925 100 0 950 100 0 975 100 0 1000 100 0 0 125 0 25 125 0 50 125 0 75 125 0 100 125 0 125 125 0 150 125 0 175 125 0 200 125 0 225 125 0 250 125 0 275 125 0 300 125 0 325 125 0 350 125 0 375 125 0 400 125 0 425 125 0 450 125 0 475 125 0 500 125 0 525 125 0 550 125 0 575 125 0 600 125 0 625 125 0 650 125 0 675 125 0 700 125 0 725 125 0 750 125 0 775 125 0 800 125 0 825 125 0 850 125 0 875 125 0 900 125 0 925 125 0 950 125 0 975 125 0 1000 125 0 0 150 0 25 150 0 50 150 0 75 150 0 100 150 0 125 150 0 150 150 0 175 150 0 200 150 0 225 150 0 250 150 0 275 150 0 300 150 0 325 150 0 350 150 0 375 150 0 400 150 0 425 150 0 450 150 0 475 150 0 500 150 0 525 150 0 550 150 0 575 150 0 600 150 0 625 150 0 650 150 0 675 150 0 700 150 0 725 150 0 750 150 0 775 150 0 800 150 0 825 150 0 850 150 0 875 150 0 900 150 0 925 150 0 950 150 0 975 150 0 1000 150 0 0 175 0 25 175 0 50 175 0 75 175 0 100 175 0 125 175 0 150 175 0 175 175 0 200 175 0 225 175 0 250 175 0 275 175 0 300 175 0 325 175 0 350 175 0 375 175 0 400 175 0 425 175 0 450 175 0 475 175 0 500 175 0 525 175 0 550 175 0 575 175 0 600 175 0 625 175 0 650 175 0 675 175 0 700 175 0 725 175 0 750 175 0 775 175 0 800 175 0 825 175 0 850 175 0 875 175 0 900 175 0 925 175 0 950 175 0 975 175 0 1000 175 0 0 200 0 25 200 0 50 200 0 75 200 0 100 200 0 125 200 0 150 200 0 175 200 0 200 200 0 225 200 0 250 200 0 275 200 0 300 200 0 325 200 0 350 200 0 375 200 0 400 200 0 425 200 0 450 200 0 475 200 0 500 200 0 525 200 0 550 200 0 575 200 0 600 200 0 625 200 0 650 200 0 675 200 0 700 200 0 725 200 0 750 200 0 775 200 0 800 200 0 825 200 0 850 200 0 875 200 0 900 200 0 925 200 0 950 200 0 975 200 0 1000 200 0 0 225 0 25 225 0 50 225 0 75 225 0 100 225 0 125 225 0 150 225 0 175 225 0 200 225 0 225 225 0 250 225 0 275 225 0 300 225 0 325 225 0 350 225 0 375 225 0 400 225 0 425 225 0 450 225 0 475 225 0 500 225 0 525 225 0 550 225 0 575 225 0 600 225 0 625 225 0 650 225 0 675 225 0 700 225 0 725 225 0 750 225 0 775 225 0 800 225 0 825 225 0 850 225 0 875 225 0 900 225 0 925 225 0 950 225 0 975 225 0 1000 225 0 0 250 0 25 250 0 50 250 0 75 250 0 100 250 0 125 250 0 150 250 0 175 250 0 200 250 0 225 250 0 250 250 0 275 250 0 300 250 0 325 250 0 350 250 0 375 250 0 400 250 0 425 250 0 450 250 0 475 250 0 500 250 0 525 250 0 550 250 0 575 250 0 600 250 0 625 250 0 650 250 0 675 250 0 700 250 0 725 250 0 750 250 0 775 250 0 800 250 0 825 250 0 850 250 0 875 250 0 900 250 0 925 250 0 950 250 0 975 250 0 1000 250 0 0 275 0 25 275 0 50 275 0 75 275 0 100 275 0 125 275 0 150 275 0 175 275 0 200 275 0 225 275 0 250 275 0 275 275 0 300 275 0 325 275 0 350 275 0 375 275 0 400 275 0 425 275 0 450 275 0 475 275 0 500 275 0 525 275 0 550 275 0 575 275 0 600 275 0 625 275 0 650 275 0 675 275 0 700 275 0 725 275 0 750 275 0 775 275 0 800 275 0 825 275 0 850 275 0 875 275 0 900 275 0 925 275 0 950 275 0 975 275 0 1000 275 0 0 300 0 25 300 0 50 300 0 75 300 0 100 300 0 125 300 0 150 300 0 175 300 0 200 300 0 225 300 0 250 300 0 275 300 0 300 300 0 325 300 0 350 300 0 375 300 0 400 300 0 425 300 0 450 300 0 475 300 0 500 300 0 525 300 0 550 300 0 575 300 0 600 300 0 625 300 0 650 300 0 675 300 0 700 300 0 725 300 0 750 300 0 775 300 0 800 300 0 825 300 0 850 300 0 875 300 0 900 300 0 925 300 0 950 300 0 975 300 0 1000 300 0 0 325 0 25 325 0 50 325 0 75 325 0 100 325 0 125 325 0 150 325 0 175 325 0 200 325 0 225 325 0 250 325 0 275 325 0 300 325 0 325 325 0 350 325 0 375 325 0 400 325 0 425 325 0 450 325 0 475 325 0 500 325 0 525 325 0 550 325 0 575 325 0 600 325 0 625 325 0 650 325 0 675 325 0 700 325 0 725 325 0 750 325 0 775 325 0 800 325 0 825 325 0 850 325 0 875 325 0 900 325 0 925 325 0 950 325 0 975 325 0 1000 325 0 0 350 0 25 350 0 50 350 0 75 350 0 100 350 0 125 350 0 150 350 0 175 350 0 200 350 0 225 350 0 250 350 0 275 350 0 300 350 0 325 350 0 350 350 0 375 350 0 400 350 0 425 350 0 450 350 0 475 350 0 500 350 0 525 350 0 550 350 0 575 350 0 600 350 0 625 350 0 650 350 0 675 350 0 700 350 0 725 350 0 750 350 0 775 350 0 800 350 0 825 350 0 850 350 0 875 350 0 900 350 0 925 350 0 950 350 0 975 350 0 1000 350 0 0 375 0 25 375 0 50 375 0 75 375 0 100 375 0 125 375 0 150 375 0 175 375 0 200 375 0 225 375 0 250 375 0 275 375 0 300 375 0 325 375 0 350 375 0 375 375 0 400 375 0 425 375 0 450 375 0 475 375 0 500 375 0 525 375 0 550 375 0 575 375 0 600 375 0 625 375 0 650 375 0 675 375 0 700 375 0 725 375 0 750 375 0 775 375 0 800 375 0 825 375 0 850 375 0 875 375 0 900 375 0 925 375 0 950 375 0 975 375 0 1000 375 0 0 400 0 25 400 0 50 400 0 75 400 0 100 400 0 125 400 0 150 400 0 175 400 0 200 400 0 225 400 0 250 400 0 275 400 0 300 400 0 325 400 0 350 400 0 375 400 0 400 400 0 425 400 0 450 400 0 475 400 0 500 400 0 525 400 0 550 400 0 575 400 0 600 400 0 625 400 0 650 400 0 675 400 0 700 400 0 725 400 0 750 400 0 775 400 0 800 400 0 825 400 0 850 400 0 875 400 0 900 400 0 925 400 0 950 400 0 975 400 0 1000 400 0 0 425 0 25 425 0 50 425 0 75 425 0 100 425 0 125 425 0 150 425 0 175 425 0 200 425 0 225 425 0 250 425 0 275 425 0 300 425 0 325 425 0 350 425 0 375 425 0 400 425 0 425 425 0 450 425 0 475 425 0 500 425 0 525 425 0 550 425 0 575 425 0 600 425 0 625 425 0 650 425 0 675 425 0 700 425 0 725 425 0 750 425 0 775 425 0 800 425 0 825 425 0 850 425 0 875 425 0 900 425 0 925 425 0 950 425 0 975 425 0 1000 425 0 0 450 0 25 450 0 50 450 0 75 450 0 100 450 0 125 450 0 150 450 0 175 450 0 200 450 0 225 450 0 250 450 0 275 450 0 300 450 0 325 450 0 350 450 0 375 450 0 400 450 0 425 450 0 450 450 0 475 450 0 500 450 0 525 450 0 550 450 0 575 450 0 600 450 0 625 450 0 650 450 0 675 450 0 700 450 0 725 450 0 750 450 0 775 450 0 800 450 0 825 450 0 850 450 0 875 450 0 900 450 0 925 450 0 950 450 0 975 450 0 1000 450 0 0 475 0 25 475 0 50 475 0 75 475 0 100 475 0 125 475 0 150 475 0 175 475 0 200 475 0 225 475 0 250 475 0 275 475 0 300 475 0 325 475 0 350 475 0 375 475 0 400 475 0 425 475 0 450 475 0 475 475 0 500 475 0 525 475 0 550 475 0 575 475 0 600 475 0 625 475 0 650 475 0 675 475 0 700 475 0 725 475 0 750 475 0 775 475 0 800 475 0 825 475 0 850 475 0 875 475 0 900 475 0 925 475 0 950 475 0 975 475 0 1000 475 0 0 500 0 25 500 0 50 500 0 75 500 0 100 500 0 125 500 0 150 500 0 175 500 0 200 500 0 225 500 0 250 500 0 275 500 0 300 500 0 325 500 0 350 500 0 375 500 0 400 500 0 425 500 0 450 500 0 475 500 0 500 500 0 525 500 0 550 500 0 575 500 0 600 500 0 625 500 0 650 500 0 675 500 0 700 500 0 725 500 0 750 500 0 775 500 0 800 500 0 825 500 0 850 500 0 875 500 0 900 500 0 925 500 0 950 500 0 975 500 0 1000 500 0 0 525 0 25 525 0 50 525 0 75 525 0 100 525 0 125 525 0 150 525 0 175 525 0 200 525 0 225 525 0 250 525 0 275 525 0 300 525 0 325 525 0 350 525 0 375 525 0 400 525 0 425 525 0 450 525 0 475 525 0 500 525 0 525 525 0 550 525 0 575 525 0 600 525 0 625 525 0 650 525 0 675 525 0 700 525 0 725 525 0 750 525 0 775 525 0 800 525 0 825 525 0 850 525 0 875 525 0 900 525 0 925 525 0 950 525 0 975 525 0 1000 525 0 0 550 0 25 550 0 50 550 0 75 550 0 100 550 0 125 550 0 150 550 0 175 550 0 200 550 0 225 550 0 250 550 0 275 550 0 300 550 0 325 550 0 350 550 0 375 550 0 400 550 0 425 550 0 450 550 0 475 550 0 500 550 0 525 550 0 550 550 0 575 550 0 600 550 0 625 550 0 650 550 0 675 550 0 700 550 0 725 550 0 750 550 0 775 550 0 800 550 0 825 550 0 850 550 0 875 550 0 900 550 0 925 550 0 950 550 0 975 550 0 1000 550 0 0 575 0 25 575 0 50 575 0 75 575 0 100 575 0 125 575 0 150 575 0 175 575 0 200 575 0 225 575 0 250 575 0 275 575 0 300 575 0 325 575 0 350 575 0 375 575 0 400 575 0 425 575 0 450 575 0 475 575 0 500 575 0 525 575 0 550 575 0 575 575 0 600 575 0 625 575 0 650 575 0 675 575 0 700 575 0 725 575 0 750 575 0 775 575 0 800 575 0 825 575 0 850 575 0 875 575 0 900 575 0 925 575 0 950 575 0 975 575 0 1000 575 0 0 600 0 25 600 0 50 600 0 75 600 0 100 600 0 125 600 0 150 600 0 175 600 0 200 600 0 225 600 0 250 600 0 275 600 0 300 600 0 325 600 0 350 600 0 375 600 0 400 600 0 425 600 0 450 600 0 475 600 0 500 600 0 525 600 0 550 600 0 575 600 0 600 600 0 625 600 0 650 600 0 675 600 0 700 600 0 725 600 0 750 600 0 775 600 0 800 600 0 825 600 0 850 600 0 875 600 0 900 600 0 925 600 0
[...]
POINT_DATA 1681

VECTORS displacement double
0 0 0 -8.194269756067419 8.510200593896386 0 -13.37373966881575 10.957442319873005 0 -17.099098141969193 11.505392675962476 0 -19.932597560606514 11.212167960659224 0 -22.18599048084287 10.474067975303027 0 -24.047261883589872 9.469908879164185 0 -25.633953437263177 8.290963587191868 0 -27.0221795725907 6.988551016962497 0 -28.26308387055961 5.593815697173281 0 -29.392309538348265 4.126776033166065 0 -30.435552806989556 2.600834491673793 0 -31.411905122823065 1.0252125614981948 0 -32.33592955925251 -0.5936365366956369 0 -33.21899770557824 -2.2511564264074124 0 -34.07018378946045 -3.9441231546776216 0 -34.896886792742286 -5.670266311999436 0 -35.70528142652244 -7.428008981091035 0 -36.50065946474283 -9.216288030439106 0 -37.28770039445463 -11.03443175079612 0 -38.07069727746905 -12.882080898141586 0 -38.85375617660008 -14.75914492879106 0 -39.640983358236355 -16.665789191392538 0 -40.436672647399035 -18.60245199909906 0 -41.24550531587041 -20.569893476318686 0 -42.07277672525438 -22.56928142847696 0 -42.92466808139233 -24.60232391888255 0 -43.80858915682408 -26.67146483200487 0 -44.733630771790494 -28.780169355398186 0 -45.71118801123348 -30.93334462326322 0 -46.755853598464405 -33.13797390381597 0 -47.886748360513224 -35.40410552072095 0 -49.12957554173542 -37.74646192687187 0 -50.519898839850924 -40.187190011229006 0 -52.10851806466444 -42.760819698208074 0 -53.970444870246475 -45.52370527694353 0 -56.21992311263326 -48.5729860633322 0 -59.03490669007478 -52.086630530550664 0 -62.693626200020965 -56.41173061038275 0 -67.61861371967655 -62.257940443826335 0 -74.45979084955829 -70.90177271715942 0 -13.448491159544826 4.186682624867077 0 -14.907657747049738 9.388370816321888 0 -16.64265009663472 11.50608735946044 0 -18.467913966016738 12.018896250999104 0 -20.22473004464744 11.703132898247386 0 -21.84416876753866 10.931792854000333 0 -23.313226685726324 9.890221524416303 0 -24.64357136112878 8.675495278798962 0 -25.854782375454924 7.341547148804488 0 -26.966991489721327 5.920162517571763 0 -27.99819980797785 4.431098563592499 0 -28.963637691258835 2.8871811471225 0 -29.875912458554943 1.2970086254661646 0 -30.74539960004638 -0.33352988162157743 0 -31.58066264586529 -2.000351752793215 0 -32.38882904564749 -3.700615313851488 0 -33.17590651126479 -5.432350051621404 0 -33.94704481904731 -7.194207519695306 0 -34.70675384476235 -8.985291296886945 0 -35.459088951946995 -10.805042021485551 0 -36.207813587439475 -12.6531634066862 0 -36.9565475202094 -14.529581090151742 0 -37.70890809853585 -16.434430121454998 0 -38.468651345395834 -18.368069902037544 0 -39.23981969925336 -20.331128133775668 0 -40.02690375455391 -22.32457835953251 0 -40.835026480124135 -24.349859635106185 0 -41.670160071361714 -26.409052729010853 0 -42.53938762381994 -28.50513671726941 0 -43.45122346910527 -30.64236620014302 0 -44.416005149120565 -32.826839212407435 0 -45.44636097946167 -35.06738304391727 0 -46.55772589648734 -37.37699954714906 0 -47.76879090605442 -39.775349796109026 0 -49.101548413654214 -42.29327307068592 0 -50.58005471850441 -44.98148702114673 0 -52.22576510874173 -47.92827769816132 0 -54.0444167544098 -51.297378213061535 0 -55.992732456890174 -55.4138615864869 0 -57.88904890325398 -60.98774991823491 0 -58.93520091814822 -70.20792072260981 0 -18.168928620120738 6.713491473192417 0 -18.669660499121047 9.914984627366007 0 -19.237373433292735 11.619553520872804 0 -20.00930811022288 12.130146038488357 0 -20.937891414990823 11.878338912216375 0 -21.943959866759577 11.157283961969053 0 -22.96772657745688 10.143106012407687 0 -23.97408362633124 8.938928736990977 0 -24.946043097724296 7.605563369923304 0 -25.877678097884765 6.1796548752491685 0 -26.769104322204072 4.683903875118999 0 -27.623407953594057 3.1327732542472213 0 -28.444916311241137 1.535709080344351 0 -29.238286630320086 -0.10099867406694339 0 -30.008061628860123 -1.7731075004168335 0 -30.75848043301257 -3.4777388294969347 0 -31.493424711588688 -5.212942427374597 0 -32.21643417263288 -6.977411154362593 0 -32.93075632914396 -8.770291256554975 0 -33.639412358661154 -10.591056741650858 0 -34.34527000624355 -12.439429595976254 0 -35.05111930767304 -14.31533543103063 0 -35.759749366519 -16.218889171849312 0 -36.474025510769266 -18.150409057669226 0 -37.1969663368194 -20.110460429940666 0 -37.931819499561186 -22.099934268168276 0 -38.6821333585658 -24.12017002891088 0 -39.45181801137548 -26.173139288297218 0 -40.245182334841864 -28.26171815854902 0 -41.06692051694425 -30.390096552115594 0 -41.92199672806949 -32.564409164457395 0 -42.81532994928138 -34.79374271584179 0 -43.75109450752626 -37.0918094168034 0 -44.73129551971474 -39.47984487926577 0 -45.753009832498094 -41.99182540765791 0 -46.803271498438235 -44.68417097065052 0 -47.85013601969961 -47.65419367497403 0 -48.82875971690165 -51.07543221576649 0 -49.626066980457004 -55.2642966686486 0 -50.10123996245364 -60.78661531551436 0 -50.67887281738104 -67.94940443383905 0 -20.22233878660642 8.747119222539812 0 -20.534651556051813 10.524919909028837 0 -20.74909057245191 11.693765403024486 0 -21.05372004026647 12.08718585687029 0 -21.501131094639426 11.862055345083535 0 -22.07296205573987 11.199521292796128 0 -22.730954155462825 10.238317537260126 0 -23.43954320634086 9.073046676458771 0 -24.172342358161224 7.765555994758846 0 -24.91201243573764 6.355774329466779 0 -25.6481921878653 4.869518318578226 0 -26.375333899779434 3.3236153979672376 0 -27.090996199135667 1.729146852171897 0 -27.794646307429346 0.09348022479538137 0 -28.486872504454244 -1.5784517011569537 0 -29.168888548551095 -3.28333623386968 0 -29.842233323744175 -5.0189537217286135 0 -30.508596457121545 -6.783831596691343 0 -31.16972338656844 -8.577015481244603 0 -31.827369608793674 -10.39791884102655 0 -32.48328460296248 -12.24622810955621 0 -33.13921266875041 -14.121849825306676 0 -33.79690184106096 -16.024892667965354 0 -34.458113940029946 -17.95568195429672 0 -35.12462908746536 -19.914808248652385 0 -35.798236713689455 -21.903216184925945 0 -36.480701861623274 -23.922345434277414 0 -37.173689676703646 -25.974344505465048 0 -37.8786209307016 -28.06239225478017 0 -38.59641498293309 -30.191186047114495 0 -39.327050439788444 -32.367697380947185 0 -40.06883409124884 -34.602369512187316 0 -40.817213908482266 -36.911061059909464 0 -41.56291307777495 -39.31826132660356 0 -42.28915626059233 -41.86245760740457 0 -42.968010131921254 -44.60500036135448 0 -43.557020828596904 -47.64399568526453 0 -44.00147867489493 -51.13249879343453 0 -44.26205856976514 -55.28433080365813 0 -44.43791701106345 -60.26086200049937 0 -44.889729405383875 -65.87070879782256 0 -21.015696998638173 10.4101830026153 0 -21.28104292416013 11.217911260513466 0 -21.402734342807626 11.857358886996495 0 -21.52348076659565 12.044575542536622 0 -21.72439168548687 11.777623288627165 0 -22.028483803046502 11.140401147042798 0 -22.427297818767965 10.223945072306192 0 -22.90086004594575 9.102830731677377 0 -23.428201318054874 7.8321880531056705 0 -23.99161372231083 6.4509209573517206 0 -24.577666594753705 4.985890320713124 0 -25.17684176516327 3.4554664155682637 0 -25.782738519218043 1.8721710818246737 0 -26.391265689009458 0.2445336626535891 0 -26.99996848796232 -1.4216384909224205 0 -27.607516919685665 -3.122398916562114 0 -28.213336600104117 -4.855079592889779 0 -28.817350698641746 -6.617896820782184 0 -29.41980299988469 -8.409685331140365 0 -30.021137465989952 -10.229721555438992 0 -30.621915280066748 -12.07761125172229 0 -31.222754813393383 -13.953226386338773 0 -31.824282954185527 -15.85668305875591 0 -32.42708777117356 -17.78835761030932 0 -33.031662602572204 -19.748942894773034 0 -33.63833030224382 -21.739551949333904 0 -34.247133330612556 -23.761883063121946 0 -34.857670289732894 -25.818469961052504 0 -35.46885196469968 -27.91305569134786 0 -36.07853986357635 -30.051152147567013 0 -36.683018952171146 -32.24088374819846 0 -37.27624929533217 -34.49426937879016 0 -37.8488555585383 -36.82917415537533 0 -38.386894385683206 -39.27224689744087 0 -38.8707020702365 -41.86316761173372 0 -39.27484056835032 -44.660156341857665 0 -39.571927701325684 -47.74494903081048 0 -39.74701576342346 -51.21938183007159 0 -39.834426460332956 -55.169277438415655 0 -39.96317637456231 -59.5696501463104 0 -40.33802641946261 -64.14963520778403 0 -21.092414778916023 11.781835150920207 0 -21.336345475866352 11.932697914438025 0 -21.442605828006805 12.11445612487513 0 -21.50166368002224 12.060763016652656 0 -21.587830031528924 11.698478584306343 0 -21.74029225588505 11.045500285301129 0 -21.970581994209176 10.150048892557814 0 -22.274370000633763 9.062999272525103 0 -22.640423124087164 7.8278362653240094 0 -23.055901135848753 6.478514911088061 0 -23.508956417736876 5.040336623905925 0 -23.98971807029529 3.531664237654215 0 -24.490437602703086 1.9656174893285614 0 -25.005263915927763 0.35147637479591554 0 -25.52989757157605 -1.3042438310609785 0 -26.061243117304738 -2.9970011052637737 0 -26.597106741965426 -4.72365682544748 0 -27.135950947170574 -6.482071565509348 0 -27.676702055109 -8.27082268971993 0 -28.218600493977778 -10.089011847038567 0 -28.76108250342864 -11.936140400025103 0 -29.303682352438134 -13.81203864178719 0 -29.845944955189044 -15.716840858355987 0 -30.387339239210945 -17.65100353572925 0 -30.927162457869837 -19.615368971629756 0 -31.46442472083442 -21.6112819488009 0 -31.997701355072365 -23.640773773796127 0 -32.524938558218814 -25.706836859188957 0 -33.04319598108396 -27.813825255615612 0 -33.548310511499444 -29.968033111909875 0 -34.03447372276964 -32.178523690291925 0 -34.49374264615044 -34.45830141078276 0 -34.91557417014014 -36.82591986436644 0 -35.28663661938518 -39.30754453775199 0 -35.59149761529132 -41.93919398062729 0 -35.81544412817084 -44.768018490174484 0 -35.9516834689529 -47.8493490500766 0 -36.01553296518925 -51.23228540677182 0 -36.06248113811751 -54.925017679921766 0 -36.19199938643692 -58.84033702335112 0 -36.50959472484789 -62.73871958180753 0 -20.71370769259485 12.928267209075928 0 -20.938797010691395 12.625532617198587 0 -21.047741211631948 12.43478478931855 0 -21.09293373077804 12.143159236629526 0 -21.13159931013193 11.656359267075453 0 -21.204019199179108 10.954680857238262 0 -21.33110586572482 10.054494472287958 0 -21.519222075643235 8.984995516704165 0 -21.765924671930957 7.776572300115032 0 -22.064423556192956 6.455966357987924 0 -22.4064448457943 5.044885420978246 0 -22.783826816169366 3.560162092721194 0 -23.18927472536535 2.0144808690768867 0 -23.61661880218836 0.41721757049719105 0 -24.06080853253133 -1.2247964109509675 0 -24.517785102809214 -2.9066444730149206 0 -24.984311009581965 -4.624833374694468 0 -25.457796658089617 -6.376922994535156 0 -25.936141035098803 -8.16125563311554 0 -26.417591152805123 -9.976765191035614 0 -26.900618624144247 -11.822850779545877 0 -27.383808696485268 -13.69930398333395 0 -27.86575569320818 -15.606283491847599 0 -28.344958167358453 -17.54433510801331 0 -28.819706705423712 -19.51445944716452 0 -29.287957124824544 -21.518234278780223 0 -29.747182026071428 -23.55800377724471 0 -30.194195033360405 -25.6371531440503 0 -30.624946216100007 -27.76049388172039 0 -31.0342973953613 -29.934790872777587 0 -31.415808525127034 -32.16946252056487 0 -31.761612312256425 -34.47746714571993 0 -32.0625422055905 -36.87632374920759 0 -32.308834072537934 -39.3890416217988 0 -32.49196025390966 -42.04433528611054 0 -32.60840979580671 -44.87471556889952 0 -32.666111452974825 -47.909864321544596 0 -32.692517944228065 -51.16207970962627 0 -32.73911692878594 -54.602716224471195 0 -32.872784353935636 -58.134211072271604 0 -33.14552971450687 -61.56845038561181 0 -20.02158846335038 13.899577374842846 0 -20.227121295615728 13.273688345524974 0 -20.339232929963412 12.786943840119909 0 -20.38644164303315 12.27908401458469 0 -20.409284214664826 11.658291167458524 0 -20.442601656932208 10.88708992693355 0 -20.50956455695097 9.961065893754082 0 -20.622186270881908 8.892290619710332 0 -20.784172598692173 7.699021285151818 0 -20.993954026417608 6.400164832229111 0 -21.247092436468673 5.0127237224237104 0 -21.537925092658753 3.5509034065197547 0 -21.8605680502675 2.026054638956216 0 -22.209460279914623 0.44698037914601774 0 -22.57960960310988 -1.1796401119699575 0 -22.966659962070924 -2.848829323892163 0 -23.366860027127853 -4.5569421020693985 0 -23.776982714610856 -6.301364516887085 0 -24.194224119279994 -8.0802808251306 0 -24.61609674111135 -9.892502335371788 0 -25.040323516082903 -11.737350897456157 0 -25.4647342434335 -13.61459097730778 0 -25.887163260921195 -15.524406569120716 0 -26.30534585539456 -17.467421959340374 0 -26.71681051202809 -19.444768360960254 0 -27.11876467427728 -21.45820157215886 0 -27.50797359027058 -23.51027888563509 0 -27.88063599682137 -25.604605922389784 0 -28.23226860793143 -27.746164444044418 0 -28.55762664434657 -29.941727201703696 0 -28.850714656043753 -32.20034849141313 0 -29.1049869316077 -34.53387545946254 0 -29.313905360094004 -36.957330355184766 0 -29.472109940234475 -39.48882936167924 0 -29.577520354709144 -42.148390414937666 0 -29.634582305313003 -44.95456939751999 0 -29.658280239714145 -47.9176264571287 0 -29.677156751363054 -51.02848734770526 0 -29.73184703944202 -54.24463619637197 0 -29.865116093852272 -57.476830271541424 0 -30.101602237060714 -60.58291982931447 0 -19.100686351948575 14.731740676115818 0 -19.286396885644486 13.867730659304138 0 -19.398120571916756 13.147022432867503 0 -19.450486879014356 12.451069090646037 0 -19.47093792162892 11.699380463397246 0 -19.487157934315654 10.84859008532294 0 -19.520787782438198 9.882231296460498 0 -19.585838891015392 8.800165409901533 0 -19.689546786449423 7.610652097719452 0 -19.834073589074812 6.325273247367907 0 -20.018220159184423 4.956043870912585 0 -20.238812540055896 3.5139649796547685 0 -20.4916953340453 2.008438427613416 0 -20.77238012019421 0.44715381729193115 0 -21.07643097516515 -1.1637927815576432 0 -21.399666231418447 -2.819686733517813 0 -21.738239743910434 -4.516964048536811 0 -22.088647345330113 -6.25299904552108 0 -22.44768920083061 -8.025926736085662 0 -22.81240749246149 -9.83450539519747 0 -23.18001098379172 -11.678019838453213 0 -23.54779284663432 -13.556224266311702 0 -23.91304500526358 -15.469323656975451 0 -24.272970688319614 -17.417993714353344 0 -24.62459664472261 -19.403440752552772 0 -24.964687635017725 -21.42750415583283 0 -25.289668750322384 -23.492804571341747 0 -25.595566651553 -25.602939681022935 0 -25.87799027429337 -27.76272421641196 0 -26.132186695586856 -29.97845808269917 0 -26.35323052673861 -32.25817957477841 0 -26.5364356107194 -34.61180956185972 0 -26.67811017417133 -37.05100414674017 0 -26.776789147191952 -39.5883988317479 0 -26.835015256056 -42.235765134995226 0 -26.861503322494126 -45.000503621434376 0 -26.873013488796886 -47.880065519877526 0 -26.89456221561106 -50.854546056879705 0 -26.95615078393906 -53.878827868406205 0 -27.08462460609853 -56.87692874802437 0 -27.290945888637438 -59.74215478383918 0 -18.005439683061233 15.450174421985704 0 -18.171764672445732 14.405190961426307 0 -18.279554989092905 13.498834689070693 0 -18.335732538741006 12.643022923365297 0 -18.358406846667865 11.770321268737678 0 -18.36856582671756 10.837736110014873 0 -18.384755233244103 9.822765593102021 0 -18.420776675647193 8.717271667031968 0 -18.48539186702337 7.521922966670092 0 -18.583036015307453 6.242070136001116 0 -18.714867777022466 4.8850309473755535 0 -18.879792486580193 3.458469187710771 0 -19.07530502407194 1.9695247841699948 0 -19.29811646294111 0.42441811138385493 0 -19.54458408092041 -1.1716683379589239 0 -19.810983847374704 -2.8145601298411527 0 -20.0936660400454 -4.5009928882288825 0 -20.3891287059242 -6.228493088932583 0 -20.694035758006304 -7.995263776475364 0 -21.005199110204213 -9.800088853071923 0 -21.319538326521158 -11.642262555183724 0 -21.63402697633101 -13.521547091698416 0 -21.945632140140642 -15.438159781007318 0 -22.251252157188457 -17.39279044510634 0 -22.547657695127263 -19.386649583253142 0 -22.83144265749071 -21.421547279528387 0 -23.09899462275777 -23.500001052079448 0 -23.346499911372124 -25.625366660978916 0 -23.570006569167607 -27.80197726148677 0 -23.765579842795564 -30.03526017633596 0 -23.929598269300747 -32.33177277866764 0 -24.05925040017688 -34.69905502092249 0 -24.153291877629282 -37.14513447851484 0 -24.21308795953678 -39.67745007436785 0 -24.24386209491321 -42.300917994673085 0 -24.255862904720463 -45.01491903418441 0 -24.264866265553437 -47.80922930097969 0 -24.29117431874569 -50.6593855978169 0 -24.356294709813195 -53.522593474699526 0 -24.47700149272873 -56.33586128731041 0 -24.657543962671106 -59.018383795585684 0 -16.77322189346918 16.07288342597696 0 -16.920984741141446 14.886820706492495 0 -17.022212366504398 13.83206214710792 0 -17.07970770916995 12.842039061164515 0 -17.105254271825586 11.86118494769125 0 -17.11434062029605 10.84970026129139 0 -17.122089547467453 9.782805285651584 0 -17.14096280249402 8.64754880544835 0 -17.1799246339713 7.439196076600218 0 -17.244521224292377 6.158139480852946 0 -17.337410870285343 4.807602742915616 0 -17.45903571462031 3.392089531564238 0 -17.60826377115291 1.9164166407848156 0 -17.782924991377794 0.3851619541889279 0 -17.980221090067783 -1.1976143024250905 0 -18.197017239139644 -2.828480042478809 0 -18.43003524180268 -4.50464608891364 0 -18.67597013582408 -6.223932798915045 0 -18.931550221739894 -7.984718400015992 0 -19.19355705875222 -9.785887048830663 0 -19.458818470990725 -11.62678706043436 0 -19.724184740353856 -13.507205110568748 0 -19.986496211515313 -15.427359405425973 0 -20.242549613373797 -17.387912995880164 0 -20.489070585131625 -19.390006861695166 0 -20.722701286289876 -21.435310385181346 0 -20.940014702008508 -23.526083517798707 0 -21.1375714242823 -25.665239191539758 0 -21.312040151190292 -27.856384847071965 0 -21.460409077297495 -30.103806548808244 0 -21.580319416550832 -32.41233644669964 0 -21.67054935209568 -34.78701442104965 0 -21.731657285309804 -37.232422503387774 0 -21.766743511703936 -39.751550597854795 0 -21.78219636924209 -42.344072036331326 0 -21.788155377289375 -45.00400451473475 0 -21.798290336062447 -47.716932421163925 0 -21.82844833939399 -50.4572580095526 0 -21.893865232543114 -53.18626602806571 0 -22.005039640690157 -55.852030819007574 0 -22.163005405751125 -58.39227425228759 0 -15.431151068744494 16.612769926483548 0 -15.561292693810818 15.314634223509435 0 -15.654217362222099 14.140362011162193 0 -15.710615998139277 13.038423111692802 0 -15.738099647461366 11.963050275072485 0 -15.74792576484408 10.878555282907955 0 -15.752052854035256 9.760021246557434 0 -15.761158523277064 8.591897823543267 0 -15.783636385689823 7.365817793661131 0 -15.82532365663729 6.078425159065209 0 -15.889672432653473 4.729568065210749 0 -15.978134554431696 3.3209454220748578 0 -16.090607422330393 1.8551678685699782 0 -16.225854127807896 0.3351478854384199 0 -16.381857551147263 -1.236270242825622 0 -16.55609653331436 -2.8565167888796337 0 -16.745747651925196 -4.523397820520723 0 -16.947823162664772 -6.2351334605833335 0 -17.159257849082156 -7.99036207912913 0 -17.376957241235605 -9.788129473517873 0 -17.597818395302212 -11.627875109750306 0 -17.81873302985621 -13.509422675209724 0 -18.036581763871517 -15.43297881589473 0 -18.248227752406535 -17.3991413436167 0 -18.450518307129673 -19.40891578038032 0 -18.64030418486705 -21.463736223853527 0 -18.81448810104577 -23.56548246553585 0 -18.970116462805663 -25.71647927317927 0 -19.104530714230087 -27.919454933962243 0 -19.215595695953553 -30.177423962907813 0 -19.302019457499387 -32.49344363920876 0 -19.36376773504111 -34.870178224109544 0 -19.402550979679944 -37.30919475084485 0 -19.4223169764224 -39.809921940872805 0 -19.429617930685975 -42.36824516815137 0 -19.43365111538793 -44.97479971873286 0 -19.445729466802945 -47.61316351625843 0 -19.477969484132878 -50.25831855301875 0 -19.54112989401978 -52.87590508994199 0 -19.641807897666496 -55.4228815864357 0 -19.77956893554758 -57.85017692545938 0 -13.999850435559654 17.079