# vtk DataFile Version 4.2
Tri2D3N
ASCII

DATASET UNSTRUCTURED_GRID
POINTS 1681 double
0 0 0 25 0 0 50 0 0 75 0 0 100 0 0 125 0 0 150 0 0 175 0 0 200 0 0 225 0 0 250 0 0 275 0 0 300 0 0 325 0 0 350 0 0 375 0 0 400 0 0 425 0 0 450 0 0 475 0 0 500 0 0 525 0 0 550 0 0 575 0 0 600 0 0 625 0 0 650 0 0 675 0 0 700 0 0 725 0 0 750 0 0 775 0 0 800 0 0 825 0 0 850 0 0 875 0 0 900 0 0 925 0 0 950 0 0 975 0 0 1000 0 0 0 25 0 25 25 0 50 25 0 75 25 0 100 25 0 125 25 0 150 25 0 175 25 0 200 25 0 225 25 0 250 25 0 275 25 0 300 25 0 325 25 0 350 25 0 375 25 0 400 25 0 425 25 0 450 25 0 475 25 0 500 25 0 525 25 0 550 25 0 575 25 0 600 25 0 625 25 0 650 25 0 675 25 0 700 25 0 725 25 0 750 25 0 775 25 0 800 25 0 825 25 0 850 25 0 875 25 0 900 25 0 925 25 0 950 25 0 975 25 0 1000 25 0 0 50 0 25 50 0 50 50 0 75 50 0 100 50 0 125 50 0 150 50 0 175 50 0 200 50 0 225 50 0 250 50 0 275 50 0 300 50 0 325 50 0 350 50 0 375 50 0 400 50 0 425 50 0 450 50 0 475 50 0 500 50 0 525 50 0 550 50 0 575 50 0 600 50 0 625 50 0 650 50 0 675 50 0 700 50 0 725 50 0 750 50 0 775 50 0 800 50 0 825 50 0 850 50 0 875 50 0 900 50 0 925 50 0 950 50 0 975 50 0 1000 50 0 0 75 0 25 75 0 50 75 0 75 75 0 100 75 0 125 75 0 150 75 0 175 75 0 200 75 0 225 75 0 250 75 0 275 75 0 300 75 0 325 75 0 350 75 0 375 75 0 400 75 0 425 75 0 450 75 0 475 75 0 500 75 0 525 75 0 550 75 0 575 75 0 600 75 0 625 75 0 650 75 0 675 75 0 700 75 0 725 75 0 750 75 0 775 75 0 800 75 0 825 75 0 850 75 0 875 75 0 900 75 0 925 75 0 950 75 0 975 75 0 1000 75 0 0 100 0 25 100 0 50 100 0 75 100 0 100 100 0 125 100 0 150 100 0 175 100 0 200 100 0 225 100 0 250 100 0 275 100 0 300 100 0 325 100 0 350 100 0 375 100 0 400 100 0 425 100 0 450 100 0 475 100 0 500 100 0 525 100 0 550 100 0 575 100 0 600 100 0 625 100 0 650 100 0 675 100 0 700 100 0 725 100 0 750 100 0 775 100 0 800 100 0 825 100 0 850 100 0 875 100 0 900 100 0 925 100 0 950 100 0 975 100 0 1000 100 0 0 125 0 25 125 0 50 125 0 75 125 0 100 125 0 125 125 0 150 125 0 175 125 0 200 125 0 225 125 0 250 125 0 275 125 0 300 125 0 325 125 0 350 125 0 375 125 0 400 125 0 425 125 0 450 125 0 475 125 0 500 125 0 525 125 0 550 125 0 575 125 0 600 125 0 625 125 0 650 125 0 675 125 0 700 125 0 725 125 0 750 125 0 775 125 0 800 125 0 825 125 0 850 125 0 875 125 0 900 125 0 925 125 0 950 125 0 975 125 0 1000 125 0 0 150 0 25 150 0 50 150 0 75 150 0 100 150 0 125 150 0 150 150 0 175 150 0 200 150 0 225 150 0 250 150 0 275 150 0 300 150 0 325 150 0 350 150 0 375 150 0 400 150 0 425 150 0 450 150 0 475 150 0 500 150 0 525 150 0 550 150 0 575 150 0 600 150 0 625 150 0 650 150 0 675 150 0 700 150 0 725 150 0 750 150 0 775 150 0 800 150 0 825 150 0 850 150 0 875 150 0 900 150 0 925 150 0 950 150 0 975 150 0 1000 150 0 0 175 0 25 175 0 50 175 0 75 175 0 100 175 0 125 175 0 150 175 0 175 175 0 200 175 0 225 175 0 250 175 0 275 175 0 300 175 0 325 175 0 350 175 0 375 175 0 400 175 0 425 175 0 450 175 0 475 175 0 500 175 0 525 175 0 550 175 0 575 175 0 600 175 0 625 175 0 650 175 0 675 175 0 700 175 0 725 175 0 750 175 0 775 175 0 800 175 0 825 175 0 850 175 0 875 175 0 900 175 0 925 175 0 950 175 0 975 175 0 1000 175 0 0 200 0 25 200 0 50 200 0 75 200 0 100 200 0 125 200 0 150 200 0 175 200 0 200 200 0 225 200 0 250 200 0 275 200 0 300 200 0 325 200 0 350 200 0 375 200 0 400 200 0 425 200 0 450 200 0 475 200 0 500 200 0 525 200 0 550 200 0 575 200 0 600 200 0 625 200 0 650 200 0 675 200 0 700 200 0 725 200 0 750 200 0 775 200 0 800 200 0 825 200 0 850 200 0 875 200 0 900 200 0 925 200 0 950 200 0 975 200 0 1000 200 0 0 225 0 25 225 0 50 225 0 75 225 0 100 225 0 125 225 0 150 225 0 175 225 0 200 225 0 225 225 0 250 225 0 275 225 0 300 225 0 325 225 0 350 225 0 375 225 0 400 225 0 425 225 0 450 225 0 475 225 0 500 225 0 525 225 0 550 225 0 575 225 0 600 225 0 625 225 0 650 225 0 675 225 0 700 225 0 725 225 0 750 225 0 775 225 0 800 225 0 825 225 0 850 225 0 875 225 0 900 225 0 925 225 0 950 225 0 975 225 0 1000 225 0 0 250 0 25 250 0 50 250 0 75 250 0 100 250 0 125 250 0 150 250 0 175 250 0 200 250 0 225 250 0 250 250 0 275 250 0 300 250 0 325 250 0 350 250 0 375 250 0 400 250 0 425 250 0 450 250 0 475 250 0 500 250 0 525 250 0 550 250 0 575 250 0 600 250 0 625 250 0 650 250 0 675 250 0 700 250 0 725 250 0 750 250 0 775 250 0 800 250 0 825 250 0 850 250 0 875 250 0 900 250 0 925 250 0 950 250 0 975 250 0 1000 250 0 0 275 0 25 275 0 50 275 0 75 275 0 100 275 0 125 275 0 150 275 0 175 275 0 200 275 0 225 275 0 250 275 0 275 275 0 300 275 0 325 275 0 350 275 0 375 275 0 400 275 0 425 275 0 450 275 0 475 275 0 500 275 0 525 275 0 550 275 0 575 275 0 600 275 0 625 275 0 650 275 0 675 275 0 700 275 0 725 275 0 750 275 0 775 275 0 800 275 0 825 275 0 850 275 0 875 275 0 900 275 0 925 275 0 950 275 0 975 275 0 1000 275 0 0 300 0 25 300 0 50 300 0 75 300 0 100 300 0 125 300 0 150 300 0 175 300 0 200 300 0 225 300 0 250 300 0 275 300 0 300 300 0 325 300 0 350 300 0 375 300 0 400 300 0 425 300 0 450 300 0 475 300 0 500 300 0 525 300 0 550 300 0 575 300 0 600 300 0 625 300 0 650 300 0 675 300 0 700 300 0 725 300 0 750 300 0 775 300 0 800 300 0 825 300 0 850 300 0 875 300 0 900 300 0 925 300 0 950 300 0 975 300 0 1000 300 0 0 325 0 25 325 0 50 325 0 75 325 0 100 325 0 125 325 0 150 325 0 175 325 0 200 325 0 225 325 0 250 325 0 275 325 0 300 325 0 325 325 0 350 325 0 375 325 0 400 325 0 425 325 0 450 325 0 475 325 0 500 325 0 525 325 0 550 325 0 575 325 0 600 325 0 625 325 0 650 325 0 675 325 0 700 325 0 725 325 0 750 325 0 775 325 0 800 325 0 825 325 0 850 325 0 875 325 0 900 325 0 925 325 0 950 325 0 975 325 0 1000 325 0 0 350 0 25 350 0 50 350 0 75 350 0 100 350 0 125 350 0 150 350 0 175 350 0 200 350 0 225 350 0 250 350 0 275 350 0 300 350 0 325 350 0 350 350 0 375 350 0 400 350 0 425 350 0 450 350 0 475 350 0 500 350 0 525 350 0 550 350 0 575 350 0 600 350 0 625 350 0 650 350 0 675 350 0 700 350 0 725 350 0 750 350 0 775 350 0 800 350 0 825 350 0 850 350 0 875 350 0 900 350 0 925 350 0 950 350 0 975 350 0 1000 350 0 0 375 0 25 375 0 50 375 0 75 375 0 100 375 0 125 375 0 150 375 0 175 375 0 200 375 0 225 375 0 250 375 0 275 375 0 300 375 0 325 375 0 350 375 0 375 375 0 400 375 0 425 375 0 450 375 0 475 375 0 500 375 0 525 375 0 550 375 0 575 375 0 600 375 0 625 375 0 650 375 0 675 375 0 700 375 0 725 375 0 750 375 0 775 375 0 800 375 0 825 375 0 850 375 0 875 375 0 900 375 0 925 375 0 950 375 0 975 375 0 1000 375 0 0 400 0 25 400 0 50 400 0 75 400 0 100 400 0 125 400 0 150 400 0 175 400 0 200 400 0 225 400 0 250 400 0 275 400 0 300 400 0 325 400 0 350 400 0 375 400 0 400 400 0 425 400 0 450 400 0 475 400 0 500 400 0 525 400 0 550 400 0 575 400 0 600 400 0 625 400 0 650 400 0 675 400 0 700 400 0 725 400 0 750 400 0 775 400 0 800 400 0 825 400 0 850 400 0 875 400 0 900 400 0 925 400 0 950 400 0 975 400 0 1000 400 0 0 425 0 25 425 0 50 425 0 75 425 0 100 425 0 125 425 0 150 425 0 175 425 0 200 425 0 225 425 0 250 425 0 275 425 0 300 425 0 325 425 0 350 425 0 375 425 0 400 425 0 425 425 0 450 425 0 475 425 0 500 425 0 525 425 0 550 425 0 575 425 0 600 425 0 625 425 0 650 425 0 675 425 0 700 425 0 725 425 0 750 425 0 775 425 0 800 425 0 825 425 0 850 425 0 875 425 0 900 425 0 925 425 0 950 425 0 975 425 0 1000 425 0 0 450 0 25 450 0 50 450 0 75 450 0 100 450 0 125 450 0 150 450 0 175 450 0 200 450 0 225 450 0 250 450 0 275 450 0 300 450 0 325 450 0 350 450 0 375 450 0 400 450 0 425 450 0 450 450 0 475 450 0 500 450 0 525 450 0 550 450 0 575 450 0 600 450 0 625 450 0 650 450 0 675 450 0 700 450 0 725 450 0 750 450 0 775 450 0 800 450 0 825 450 0 850 450 0 875 450 0 900 450 0 925 450 0 950 450 0 975 450 0 1000 450 0 0 475 0 25 475 0 50 475 0 75 475 0 100 475 0 125 475 0 150 475 0 175 475 0 200 475 0 225 475 0 250 475 0 275 475 0 300 475 0 325 475 0 350 475 0 375 475 0 400 475 0 425 475 0 450 475 0 475 475 0 500 475 0 525 475 0 550 475 0 575 475 0 600 475 0 625 475 0 650 475 0 675 475 0 700 475 0 725 475 0 750 475 0 775 475 0 800 475 0 825 475 0 850 475 0 875 475 0 900 475 0 925 475 0 950 475 0 975 475 0 1000 475 0 0 500 0 25 500 0 50 500 0 75 500 0 100 500 0 125 500 0 150 500 0 175 500 0 200 500 0 225 500 0 250 500 0 275 500 0 300 500 0 325 500 0 350 500 0 375 500 0 400 500 0 425 500 0 450 500 0 475 500 0 500 500 0 525 500 0 550 500 0 575 500 0 600 500 0 625 500 0 650 500 0 675 500 0 700 500 0 725 500 0 750 500 0 775 500 0 800 500 0 825 500 0 850 500 0 875 500 0 900 500 0 925 500 0 950 500 0 975 500 0 1000 500 0 0 525 0 25 525 0 50 525 0 75 525 0 100 525 0 125 525 0 150 525 0 175 525 0 200 525 0 225 525 0 250 525 0 275 525 0 300 525 0 325 525 0 350 525 0 375 525 0 400 525 0 425 525 0 450 525 0 475 525 0 500 525 0 525 525 0 550 525 0 575 525 0 600 525 0 625 525 0 650 525 0 675 525 0 700 525 0 725 525 0 750 525 0 775 525 0 800 525 0 825 525 0 850 525 0 875 525 0 900 525 0 925 525 0 950 525 0 975 525 0 1000 525 0 0 550 0 25 550 0 50 550 0 75 550 0 100 550 0 125 550 0 150 550 0 175 550 0 200 550 0 225 550 0 250 550 0 275 550 0 300 550 0 325 550 0 350 550 0 375 550 0 400 550 0 425 550 0 450 550 0 475 550 0 500 550 0 525 550 0 550 550 0 575 550 0 600 550 0 625 550 0 650 550 0 675 550 0 700 550 0 725 550 0 750 550 0 775 550 0 800 550 0 825 550 0 850 550 0 875 550 0 900 550 0 925 550 0 950 550 0 975 550 0 1000 550 0 0 575 0 25 575 0 50 575 0 75 575 0 100 575 0 125 575 0 150 575 0 175 575 0 200 575 0 225 575 0 250 575 0 275 575 0 300 575 0 325 575 0 350 575 0 375 575 0 400 575 0 425 575 0 450 575 0 475 575 0 500 575 0 525 575 0 550 575 0 575 575 0 600 575 0 625 575 0 650 575 0 675 575 0 700 575 0 725 575 0 750 575 0 775 575 0 800 575 0 825 575 0 850 575 0 875 575 0 900 575 0 925 575 0 950 575 0 975 575 0 1000 575 0 0 600 0 25 600 0 50 600 0 75 600 0 100 600 0 125 600 0 150 600 0 175 600 0 200 600 0 225 600 0 250 600 0 275 600 0 300 600 0 325 600 0 350 600 0 375 600 0 400 600 0 425 600 0 450 600 0 475 600 0 500 600 0 525 600 0 550 600 0 575 600 0 600 600 0 625 600 0 650 600 0 675 600 0 700 600 0 725 600 0 750 600 0 775 600 0 800 600 0 825 600 0 850 600 0 875 600 0 900 600 0 925 600 0
[...]
POINT_DATA 1681

VECTORS displacement double
0 0 0 -8.194269756111407 8.510200593867395 0 -13.373739668888437 10.957442319822782 0 -17.099098142061 11.505392675892859 0 -19.932597560712022 11.212167960571518 0 -22.185990480958914 10.474067975198192 0 -24.04726188371442 9.469908879042817 0 -25.633953437394815 8.290963587054469 0 -27.0221795727285 6.988551016809411 0 -28.26308387070273 5.593815697004736 0 -29.392309538496136 4.126776032982253 0 -30.435552807141725 2.6008344914748784 0 -31.41190512297916 1.02521256128426 0 -32.335929559412186 -0.5936365369244806 0 -33.21899770574123 -2.251156426651064 0 -34.07018378962652 -3.9441231549360403 0 -34.89688679291118 -5.670266312272615 0 -35.705281426693944 -7.428008981378992 0 -36.50065946491678 -9.216288030741795 0 -37.287700394630725 -11.034431751113537 0 -38.07069727764701 -12.882080898473657 0 -38.853756176779804 -14.759144929137758 0 -39.64098335841769 -16.665789191753802 0 -40.43667264758184 -18.602451999474876 0 -41.24550531605452 -20.569893476709105 0 -42.072776725439745 -22.569281428881794 0 -42.92466808157879 -24.602323919301806 0 -43.80858915701145 -26.67146483243857 0 -44.73363077197864 -28.780169355846276 0 -45.71118801142221 -30.93334462372559 0 -46.75585359865357 -33.13797390429246 0 -47.886748360702775 -35.40410552121144 0 -49.129575541925306 -37.746461927376274 0 -50.51989884004103 -40.187190011747106 0 -52.108518064854664 -42.76081969873986 0 -53.97044487043676 -45.523705277488496 0 -56.2199231128235 -48.57298606389034 0 -59.03490669026501 -52.08663053112196 0 -62.69362620021126 -56.41173061096713 0 -67.61861371986697 -62.257940444423696 0 -74.45979084974874 -70.90177271776983 0 -13.448491159595733 4.186682624846191 0 -14.907657747107516 9.388370816290385 0 -16.642650096704394 11.506087359411595 0 -18.467913966098475 12.01889625093189 0 -20.224730044740014 11.703132898162222 0 -21.844168767640575 10.931792853897852 0 -23.313226685836263 9.890221524297031 0 -24.643571361245694 8.675495278663442 0 -25.85478237557792 7.341547148653061 0 -26.966991489849747 5.920162517404713 0 -27.998199808111085 4.431098563410041 0 -28.963637691396386 2.8871811469248043 0 -29.87591245869643 1.2970086252533513 0 -30.745399600191504 -0.33352988184938087 0 -31.580662646013778 -2.0003517530358916 0 -32.38882904579905 -3.7006153141090214 0 -33.17590651141911 -5.432350051893783 0 -33.94704481920423 -7.194207519982508 0 -34.706753844921685 -8.98529129718896 0 -35.45908895210849 -10.805042021802358 0 -36.20781358760292 -12.65316340701768 0 -36.95654752037465 -14.529581090497913 0 -37.70890809870277 -16.43443012181579 0 -38.468651345564226 -18.368069902412923 0 -39.239819699423094 -20.331128134165663 0 -40.026903754724906 -22.32457835993698 0 -40.83502648029625 -24.349859635525114 0 -41.67016007153484 -26.409052729444255 0 -42.53938762399392 -28.505136717717257 0 -43.45122346927993 -30.642366200605235 0 -44.41600514929577 -32.82683921288381 0 -45.44636097963738 -35.067383044407606 0 -46.55772589666351 -37.37699954765331 0 -47.768790906231 -39.77534979662704 0 -49.101548413831 -42.29327307121765 0 -50.58005471868132 -44.981487021691684 0 -52.22576510891874 -47.92827769871943 0 -54.04441675458692 -51.297378213632754 0 -55.99273245706741 -55.4138615870712 0 -57.889048903431316 -60.987749918832236 0 -58.93520091832558 -70.20792072322024 0 -18.16892862018722 6.713491473157214 0 -18.6696604991881 9.914984627326833 0 -19.237373433364095 11.619553520820936 0 -20.00930811030066 12.130146038420637 0 -20.937891415075622 11.878338912131875 0 -21.94395986685134 11.157283961867762 0 -22.96772657755522 10.143106012289822 0 -23.974083626435643 8.938928736856884 0 -24.94604309783423 7.605563369773279 0 -25.877678097999727 6.179654875083428 0 -26.769104322323603 4.683903874937753 0 -27.62340795371779 3.132773254050643 0 -28.444916311368743 1.5357090801326003 0 -29.238286630451295 -0.10099867429372615 0 -30.00806162899456 -1.7731075006585983 0 -30.758480433149977 -3.47773882975363 0 -31.49342471172888 -5.212942427646178 0 -32.2164341727756 -6.977411154649056 0 -32.93075632928909 -8.770291256856307 0 -33.639412358808514 -10.591056741967007 0 -34.345270006392894 -12.439429596307116 0 -35.05111930782418 -14.315335431376214 0 -35.7597493666718 -16.218889172209586 0 -36.474025510923525 -18.15040905804417 0 -37.196966336975066 -20.11046043033022 0 -37.93181949971814 -22.099934268572387 0 -38.68213335872391 -24.12017002932947 0 -39.45181801153462 -26.173139288730287 0 -40.24518233500193 -28.26171815899659 0 -41.06692051710504 -30.390096552577667 0 -41.921996728230944 -32.564409164933565 0 -42.81532994944343 -34.793742716331906 0 -43.751094507688855 -37.091809417307445 0 -44.73129551987784 -39.4798448797835 0 -45.75300983266155 -41.99182540818937 0 -46.80327149860186 -44.68417097119537 0 -47.85013601986346 -47.65419367553207 0 -48.82875971706564 -51.07543221633762 0 -49.62606698062115 -55.26429666923283 0 -50.10123996261788 -60.78661531611163 0 -50.67887281754529 -67.9494044344494 0 -20.22233878667807 8.747119222496242 0 -20.534651556122583 10.524919908982115 0 -20.749090572523798 11.693765402967818 0 -21.05372004034131 12.08718585680002 0 -21.501131094718424 11.862055344998042 0 -22.072962055823652 11.199521292694765 0 -22.730954155551565 10.238317537142745 0 -23.439543206434497 9.073046676325449 0 -24.172342358259527 7.765555994609709 0 -24.912012435840303 6.355774329301967 0 -25.64819218797213 4.869518318397944 0 -26.375333899890197 3.3236153977716123 0 -27.09099619925004 1.7291468519610722 0 -27.794646307547097 0.09348022456945415 0 -28.48687250457513 -1.5784517013979011 0 -29.16888854867482 -3.283336234125592 0 -29.842233323870552 -5.018953721999467 0 -30.50859645725044 -6.783831596977088 0 -31.16972338669972 -8.57701548154522 0 -31.82736960892721 -10.39791884134201 0 -32.48328460309798 -12.246228109886454 0 -33.13921266888767 -14.121849825651699 0 -33.796901841199876 -16.024892668325137 0 -34.458113940170385 -17.95568195467118 0 -35.12462908760725 -19.914808249041492 0 -35.79823671383268 -21.90321618532962 0 -36.48070186176762 -23.9223454346956 0 -37.17368967684905 -25.974344505897754 0 -37.87862093084797 -28.062392255227426 0 -38.59641498308032 -30.191186047576146 0 -39.32705043993641 -32.36769738142312 0 -40.06883409139744 -34.602369512677114 0 -40.81721390863147 -36.911061060413125 0 -41.562913077924655 -39.31826132712097 0 -42.289156260742374 -41.86245760793575 0 -42.96801013207161 -44.605000361899066 0 -43.55702082874752 -47.64399568582238 0 -44.00147867504583 -51.13249879400548 0 -44.26205856991628 -55.28433080424216 0 -44.43791701121472 -60.26086200109655 0 -44.88972940553514 -65.8707087984329 0 -21.015696998709767 10.410183002566415 0 -21.281042924230604 11.217911260460472 0 -21.402734342877903 11.857358886934714 0 -21.523480766667035 12.044575542462837 0 -21.7243916855605 11.777623288539573 0 -22.028483803123148 11.140401146940306 0 -22.427297818848132 10.223945072188377 0 -22.900860046029614 9.102830731544088 0 -23.42820131814248 7.8321880529568375 0 -23.99161372240213 6.450920957187424 0 -24.577666594848594 4.985890320533459 0 -25.1768417652616 3.455466415373304 0 -25.78273851931967 1.8721710816145598 0 -26.391265689114217 0.24453366242837762 0 -26.99996848807001 -1.421638491162674 0 -27.6075169197961 -3.1223989168173447 0 -28.21333660021711 -4.855079593159961 0 -28.817350698757156 -6.617896821067265 0 -29.419803000002386 -8.409685331440308 0 -30.021137466109714 -10.229721555753812 0 -30.621915280188432 -12.077611252051945 0 -31.222754813516858 -13.95322638668324 0 -31.824282954310718 -15.856683059115142 0 -32.42708777130036 -17.78835761068326 0 -33.031662602700486 -19.74894289516171 0 -33.63833030237341 -21.739551949737187 0 -34.24713333074337 -23.761883063539717 0 -34.857670289864814 -25.81846996148481 0 -35.46885196483267 -27.91305569179465 0 -36.07853986371017 -30.051152148028248 0 -36.683018952305645 -32.24088374867412 0 -37.27624929546738 -34.49426937927961 0 -37.84885555867411 -36.82917415587866 0 -38.386894385819495 -39.272246897958 0 -38.870702070373255 -41.86316761226456 0 -39.27484056848738 -44.66015634240202 0 -39.57192770146298 -47.744949031368144 0 -39.74701576356105 -51.21938183064231 0 -39.834426460470766 -55.169277438999494 0 -39.963176374700275 -59.56965014690744 0 -40.33802641960061 -64.14963520839427 0 -21.09241477898442 11.781835150867584 0 -21.336345475933683 11.932697914379979 0 -21.44260582807344 12.114456124808576 0 -21.50166368008907 12.060763016575073 0 -21.5878300315968 11.698478584216003 0 -21.74029225595467 11.045500285196779 0 -21.970581994281137 10.150048892438852 0 -22.274370000708405 9.062999272391188 0 -22.640423124164705 7.827836265174974 0 -23.0559011359293 6.4785149109238445 0 -23.50895641782043 5.040336623726508 0 -23.98971807038185 3.5316642374596623 0 -24.49043760279256 1.965617489118941 0 -25.00526391602006 0.3514763745712385 0 -25.52989757167107 -1.3042438313006541 0 -26.061243117402267 -2.9970011055184416 0 -26.597106742065378 -4.723656825717082 0 -27.13595094727279 -6.482071565793854 0 -27.676702055213354 -8.2708226900193 0 -28.218600494084114 -10.089011847352799 0 -28.761082503536887 -11.936140400354178 0 -29.30368235254817 -13.812038642131101 0 -29.84594495530077 -15.716840858714669 0 -30.38733923932429 -17.65100353610266 0 -30.927162457984664 -19.615368972017936 0 -31.46442472095051 -21.611281949203722 0 -31.99770135518962 -23.64077377421347 0 -32.52493855833716 -25.7068368596208 0 -33.04319598120335 -27.813825256061936 0 -33.54831051161981 -29.96803311237059 0 -34.03447372289083 -32.17852369076699 0 -34.49374264627227 -34.458301411271826 0 -34.91557417026257 -36.825919864869455 0 -35.28663661950811 -39.30754453826876 0 -35.591497615414696 -41.93919398115781 0 -35.81544412829454 -44.76801849071869 0 -35.95168346907693 -47.849349050633975 0 -36.015532965313554 -51.23228540734229 0 -36.062481138242084 -54.92501768050539 0 -36.191999386561584 -58.84033702394798 0 -36.509594724972594 -62.738719582417595 0 -20.713707692657884 12.928267209020397 0 -20.938797010753497 12.62553261713643 0 -21.047741211693253 12.434784789247791 0 -21.092933730839075 12.143159236548208 0 -21.131599310193273 11.656359266982042 0 -21.204019199241362 10.954680857131608 0 -21.33110586578856 10.054494472167361 0 -21.51922207570893 8.98499551656917 0 -21.765924671998835 7.776572299965353 0 -22.06442355626319 6.455966357823378 0 -22.406444845867025 5.0448854207987495 0 -22.78382681624466 3.560162092526754 0 -23.18927472544315 2.014480868867505 0 -23.616618802268615 0.41721757027285405 0 -24.06080853261398 -1.2247964111902485 0 -24.51778510289421 -2.9066444732691257 0 -24.984311009669256 -4.6248333749635755 0 -25.457796658179067 -6.376922994819143 0 -25.9361410351903 -8.161255633414381 0 -26.41759115289849 -9.976765191349292 0 -26.90061862423941 -11.822850779874399 0 -27.383808696582143 -13.699303983677323 0 -27.8657556933067 -15.606283492205758 0 -28.344958167458486 -17.544335108386253 0 -28.819706705525146 -19.51445944755226 0 -29.287957124927235 -21.518234279182604 0 -29.74718202617534 -23.55800377766165 0 -30.194195033465384 -25.637153144481694 0 -30.624946216206038 -27.760493882166227 0 -31.034297395468244 -29.934790873237812 0 -31.41580852523477 -32.16946252103943 0 -31.761612312364882 -34.47746714620857 0 -32.062542205699586 -36.876323749710195 0 -32.30883407264754 -39.389041622315176 0 -32.49196025401969 -42.044335286640774 0 -32.608409795917154 -44.874715569443396 0 -32.66611145308563 -47.90986432210173 0 -32.692517944339166 -51.16207971019647 0 -32.73911692889731 -54.602716225054586 0 -32.872784354047056 -58.134211072868275 0 -33.14552971461836 -61.568450386221656 0 -20.021588463406648 13.899577374784895 0 -20.227121295671168 13.273688345459421 0 -20.33923293001802 12.786943840045451 0 -20.386441643087252 12.279084014499864 0 -20.40928421471884 11.658291167362059 0 -20.442601656986636 10.887089926824409 0 -20.509564557006275 9.961065893631549 0 -20.62218627093851 8.892290619573895 0 -20.784172598750377 7.699021285001143 0 -20.993954026477653 6.400164832063917 0 -21.247092436530746 5.012723722243855 0 -21.537925092723015 3.5509034063251703 0 -21.860568050333892 2.026054638746833 0 -22.209460279983134 0.4469803789218179 0 -22.57960960318052 -1.179640112208982 0 -22.966659962143694 -2.8488293241460187 0 -23.366860027202733 -4.556942102338104 0 -23.77698271468781 -6.301364517170617 0 -24.1942241193589 -8.080280825428959 0 -24.616096741191985 -9.892502335684972 0 -25.04032351616517 -11.737350897784186 0 -25.464734243517402 -13.614590977650638 0 -25.88716326100667 -15.5244065694784 0 -26.305345855481516 -17.467421959712883 0 -26.7168105121164 -19.444768361347595 0 -27.118764674366894 -21.45820157256079 0 -27.507973590361363 -23.510278886051577 0 -27.880635996913277 -25.604605922820735 0 -28.23226860802436 -27.746164444489807 0 -28.557626644440344 -29.94172720216351 0 -28.8507146561383 -32.20034849188722 0 -29.104986931702996 -34.53387545995078 0 -29.313905360189874 -36.95733035568705 0 -29.47210994033084 -39.48882936219533 0 -29.577520354805998 -42.14839041546753 0 -29.63458230541032 -44.95456939806342 0 -29.65828023981176 -47.917626457685536 0 -29.677156751460913 -51.02848734827531 0 -29.731847039540067 -54.24463619695523 0 -29.86511609395049 -57.47683027213788 0 -30.10160223715902 -60.582919829924144 0 -19.100686351997048 14.731740676055725 0 -19.286396885692216 13.867730659235654 0 -19.3981205719637 13.147022432789797 0 -19.450486879060684 12.451069090557969 0 -19.470937921674942 11.699380463297803 0 -19.487157934361733 10.848590085211248 0 -19.520787782484756 9.88223129633587 0 -19.585838891062775 8.800165409763432 0 -19.689546786497942 7.610652097567513 0 -19.83407358912473 6.325273247201801 0 -20.01822015923595 4.956043870732126 0 -20.238812540109166 3.5139649794597987 0 -20.491695334100424 2.008438427403849 0 -20.772380120251185 0.4471538170677051 0 -21.076430975224007 -1.1637927817965548 0 -21.399666231479213 -2.819686733771439 0 -21.738239743973114 -4.516964048805187 0 -22.088647345394694 -6.252999045804239 0 -22.447689200896914 -8.025926736383646 0 -22.81240749252945 -9.83450539551024 0 -23.180010983861294 -11.678019838780786 0 -23.54779284670545 -13.556224266654093 0 -23.913045005336194 -15.469323657332708 0 -24.272970688393663 -17.417993714725412 0 -24.624596644797993 -19.403440752939655 0 -24.964687635094347 -21.42750415623433 0 -25.289668750400175 -23.49280457175779 0 -25.595566651631856 -25.602939681453506 0 -25.877990274373236 -27.762724216856945 0 -26.132186695667563 -29.97845808315852 0 -26.353230526820074 -32.25817957525207 0 -26.53643561080154 -34.61180956234765 0 -26.67811017425411 -37.05100414724213 0 -26.77678914727524 -39.588398832263636 0 -26.835015256139716 -42.23576513552474 0 -26.86150332257827 -45.00050362197748 0 -26.873013488881313 -47.88006552043407 0 -26.894562215695693 -50.85454605744956 0 -26.956150784023908 -53.878827868989255 0 -27.08462460618352 -56.87692874862064 0 -27.29094588872251 -59.74215478444869 0 -18.00543968310117 15.450174421923625 0 -18.171764672484997 14.405190961355247 0 -18.279554989131412 13.498834688990101 0 -18.335732538778863 12.643022923274266 0 -18.35840684670528 11.770321268635419 0 -18.36856582675485 10.837736109900668 0 -18.384755233281552 9.822765592975236 0 -18.42077667568514 8.717271666892072 0 -18.485391867062074 7.521922966516732 0 -18.58303601534719 6.242070135833918 0 -18.714867777063457 4.8850309471942746 0 -18.879792486622613 3.458469187515249 0 -19.075305024115906 1.9695247839600856 0 -19.29811646298671 0.4244181111594647 0 -19.544584080967688 -1.1716683381978463 0 -19.810983847423646 -2.814560130094683 0 -20.09366604009603 -4.500992888497055 0 -20.389128705976493 -6.228493089215483 0 -20.694035758060224 -7.995263776773001 0 -21.00519911025971 -9.800088853384302 0 -21.31953832657822 -11.64226255551087 0 -21.63402697638952 -13.521547092040384 0 -21.94563214020058 -15.438159781364128 0 -22.251252157249816 -17.392790445478003 0 -22.547657695189955 -19.38664958363952 0 -22.83144265755456 -21.421547279929435 0 -23.09899462282276 -23.500001052495026 0 -23.346499911438123 -25.625366661409036 0 -23.570006569234458 -27.801977261931423 0 -23.765579842863307 -30.0352601767949 0 -23.929598269369194 -32.33177277914092 0 -24.059250400245986 -34.69905502141004 0 -24.153291877698965 -37.145134479016605 0 -24.213087959606977 -39.67745007488329 0 -24.24386209498383 -42.30091799520225 0 -24.25586290479145 -45.014919034727214 0 -24.26486626562473 -47.809229301536 0 -24.291174318817237 -50.65938559838649 0 -24.356294709884946 -53.52259347528237 0 -24.477001492800547 -56.335861287906496 0 -24.657543962743002 -59.018383796194954 0 -16.773221893499972 16.072883425913037 0 -16.920984741171594 14.886820706419112 0 -17.02221236653383 13.832062147024695 0 -17.07970770919871 12.842039061070738 0 -17.105254271853834 11.86118494758633 0 -17.114340620324022 10.849700261174734 0 -17.122089547495378 9.782805285522633 0 -17.14096280252219 8.647548805306597 0 -17.179924634 7.439196076445311 0 -17.244521224321854 6.158139480684509 0 -17.337410870315825 4.807602742733392 0 -17.459035714651968 3.392089531368025 0 -17.608263771185833 1.9164166405744298 0 -17.78292499141213 0.3851619539642566 0 -17.98022109010359 -1.1976143026641541 0 -18.197017239176894 -2.8284800427323518 0 -18.430035241841413 -4.504646089181718 0 -18.675970135864322 -6.223932799197756 0 -18.93155022178163 -7.984718400313351 0 -19.193557058795413 -9.785887049142708 0 -19.45881847103534 -11.626787060761147 0 -19.724184740399853 -13.507205110910313 0 -19.986496211562685 -15.427359405782347 0 -20.24254961342253 -17.38791299625136 0 -20.48907058518157 -19.390006862081126 0 -20.72270128634094 -21.435310385581968 0 -20.940014702060633 -23.52608351821388 0 -21.137571424335334 -25.66523919196953 0 -21.312040151244194 -27.856384847516217 0 -21.46040907735219 -30.103806549266825 0 -21.580319416606216 -32.41233644717255 0 -21.670549352151674 -34.787014421536874 0 -21.73165728536636 -37.23242250388925 0 -21.766743511760993 -39.75155059836998 0 -21.782196369299626 -42.34407203686015 0 -21.7881553773473 -45.004004515277245 0 -21.798290336120676 -47.71693242171991 0 -21.828448339452436 -50.45725801012194 0 -21.893865232601755 -53.18626602864841 0 -22.005039640748887 -55.8520308196035 0 -22.16300540580996 -58.39227425289665 0 -15.431151068765645 16.61276992641783 0 -15.561292693831373 15.31463422343387 0 -15.654217362241996 14.140362011076519 0 -15.710615998158515 13.038423111596481 0 -15.73809964748004 11.963050274965045 0 -15.747925764862353 10.87855528278892 0 -15.752052854053364 9.760021246426344 0 -15.761158523295242 8.591897823399634 0 -15.783636385708322 7.365817793504627 0 -15.825323656656327 6.078425158895462 0 -15.889672432673294 4.729568065027493 0 -15.978134554452462 3.3209454218778536 0 -16.090607422352228 1.8551678683590307 0 -16.225854127830925 0.3351478852133662 0 -16.38185755117159 -1.2362702430649086 0 -16.556096533340042 -2.856516789133242 0 -16.74574765195221 -4.523397820788764 0 -16.947823162693172 -6.2351334608659 0 -17.159257849111906 -7.9903620794262755 0 -17.37695724126663 -9.788129473829668 0 -17.59781839533451 -11.627875110076788 0 -17.818733029889817 -13.509422675550908 0 -18.036581763906387 -15.432978816250703 0 -18.248227752442634 -17.39914134398747 0 -18.450518307166963 -19.408915780765827 0 -18.640304184905446 -21.46373622425368 0 -18.814488101085143 -23.565482465950648 0 -18.970116462845944 -25.71647927360861 0 -19.104530714271217 -27.919454934406065 0 -19.215595695995365 -30.177423963366042 0 -19.30201945754187 -32.49344363968129 0 -19.36376773508417 -34.87017822459635 0 -19.40255097972355 -37.30919475134578 0 -19.422316976466522 -39.80992194138753 0 -19.429617930730526 -42.368245168679856 0 -19.43365111543283 -44.974799719275055 0 -19.445729466848096 -47.61316351681417 0 -19.47796948417822 -50.258318553587856 0 -19.541129894065275 -52.87590509052443 0 -19.641807897712084 -55.422881587031284 0 -19.779568935593282 -57.85017692606807 0 -13.999850435570805 17.