# vtk DataFile Version 4.2
Quad2D4N
ASCII

DATASET UNSTRUCTURED_GRID
POINTS 1681 double
0 0 0 25 0 0 50 0 0 75 0 0 100 0 0 125 0 0 150 0 0 175 0 0 200 0 0 225 0 0 250 0 0 275 0 0 300 0 0 325 0 0 350 0 0 375 0 0 400 0 0 425 0 0 450 0 0 475 0 0 500 0 0 525 0 0 550 0 0 575 0 0 600 0 0 625 0 0 650 0 0 675 0 0 700 0 0 725 0 0 750 0 0 775 0 0 800 0 0 825 0 0 850 0 0 875 0 0 900 0 0 925 0 0 950 0 0 975 0 0 1000 0 0 0 25 0 25 25 0 50 25 0 75 25 0 100 25 0 125 25 0 150 25 0 175 25 0 200 25 0 225 25 0 250 25 0 275 25 0 300 25 0 325 25 0 350 25 0 375 25 0 400 25 0 425 25 0 450 25 0 475 25 0 500 25 0 525 25 0 550 25 0 575 25 0 600 25 0 625 25 0 650 25 0 675 25 0 700 25 0 725 25 0 750 25 0 775 25 0 800 25 0 825 25 0 850 25 0 875 25 0 900 25 0 925 25 0 950 25 0 975 25 0 1000 25 0 0 50 0 25 50 0 50 50 0 75 50 0 100 50 0 125 50 0 150 50 0 175 50 0 200 50 0 225 50 0 250 50 0 275 50 0 300 50 0 325 50 0 350 50 0 375 50 0 400 50 0 425 50 0 450 50 0 475 50 0 500 50 0 525 50 0 550 50 0 575 50 0 600 50 0 625 50 0 650 50 0 675 50 0 700 50 0 725 50 0 750 50 0 775 50 0 800 50 0 825 50 0 850 50 0 875 50 0 900 50 0 925 50 0 950 50 0 975 50 0 1000 50 0 0 75 0 25 75 0 50 75 0 75 75 0 100 75 0 125 75 0 150 75 0 175 75 0 200 75 0 225 75 0 250 75 0 275 75 0 300 75 0 325 75 0 350 75 0 375 75 0 400 75 0 425 75 0 450 75 0 475 75 0 500 75 0 525 75 0 550 75 0 575 75 0 600 75 0 625 75 0 650 75 0 675 75 0 700 75 0 725 75 0 750 75 0 775 75 0 800 75 0 825 75 0 850 75 0 875 75 0 900 75 0 925 75 0 950 75 0 975 75 0 1000 75 0 0 100 0 25 100 0 50 100 0 75 100 0 100 100 0 125 100 0 150 100 0 175 100 0 200 100 0 225 100 0 250 100 0 275 100 0 300 100 0 325 100 0 350 100 0 375 100 0 400 100 0 425 100 0 450 100 0 475 100 0 500 100 0 525 100 0 550 100 0 575 100 0 600 100 0 625 100 0 650 100 0 675 100 0 700 100 0 725 100 0 750 100 0 775 100 0 800 100 0 825 100 0 850 100 0 875 100 0 900 100 0 925 100 0 950 100 0 975 100 0 1000 100 0 0 125 0 25 125 0 50 125 0 75 125 0 100 125 0 125 125 0 150 125 0 175 125 0 200 125 0 225 125 0 250 125 0 275 125 0 300 125 0 325 125 0 350 125 0 375 125 0 400 125 0 425 125 0 450 125 0 475 125 0 500 125 0 525 125 0 550 125 0 575 125 0 600 125 0 625 125 0 650 125 0 675 125 0 700 125 0 725 125 0 750 125 0 775 125 0 800 125 0 825 125 0 850 125 0 875 125 0 900 125 0 925 125 0 950 125 0 975 125 0 1000 125 0 0 150 0 25 150 0 50 150 0 75 150 0 100 150 0 125 150 0 150 150 0 175 150 0 200 150 0 225 150 0 250 150 0 275 150 0 300 150 0 325 150 0 350 150 0 375 150 0 400 150 0 425 150 0 450 150 0 475 150 0 500 150 0 525 150 0 550 150 0 575 150 0 600 150 0 625 150 0 650 150 0 675 150 0 700 150 0 725 150 0 750 150 0 775 150 0 800 150 0 825 150 0 850 150 0 875 150 0 900 150 0 925 150 0 950 150 0 975 150 0 1000 150 0 0 175 0 25 175 0 50 175 0 75 175 0 100 175 0 125 175 0 150 175 0 175 175 0 200 175 0 225 175 0 250 175 0 275 175 0 300 175 0 325 175 0 350 175 0 375 175 0 400 175 0 425 175 0 450 175 0 475 175 0 500 175 0 525 175 0 550 175 0 575 175 0 600 175 0 625 175 0 650 175 0 675 175 0 700 175 0 725 175 0 750 175 0 775 175 0 800 175 0 825 175 0 850 175 0 875 175 0 900 175 0 925 175 0 950 175 0 975 175 0 1000 175 0 0 200 0 25 200 0 50 200 0 75 200 0 100 200 0 125 200 0 150 200 0 175 200 0 200 200 0 225 200 0 250 200 0 275 200 0 300 200 0 325 200 0 350 200 0 375 200 0 400 200 0 425 200 0 450 200 0 475 200 0 500 200 0 525 200 0 550 200 0 575 200 0 600 200 0 625 200 0 650 200 0 675 200 0 700 200 0 725 200 0 750 200 0 775 200 0 800 200 0 825 200 0 850 200 0 875 200 0 900 200 0 925 200 0 950 200 0 975 200 0 1000 200 0 0 225 0 25 225 0 50 225 0 75 225 0 100 225 0 125 225 0 150 225 0 175 225 0 200 225 0 225 225 0 250 225 0 275 225 0 300 225 0 325 225 0 350 225 0 375 225 0 400 225 0 425 225 0 450 225 0 475 225 0 500 225 0 525 225 0 550 225 0 575 225 0 600 225 0 625 225 0 650 225 0 675 225 0 700 225 0 725 225 0 750 225 0 775 225 0 800 225 0 825 225 0 850 225 0 875 225 0 900 225 0 925 225 0 950 225 0 975 225 0 1000 225 0 0 250 0 25 250 0 50 250 0 75 250 0 100 250 0 125 250 0 150 250 0 175 250 0 200 250 0 225 250 0 250 250 0 275 250 0 300 250 0 325 250 0 350 250 0 375 250 0 400 250 0 425 250 0 450 250 0 475 250 0 500 250 0 525 250 0 550 250 0 575 250 0 600 250 0 625 250 0 650 250 0 675 250 0 700 250 0 725 250 0 750 250 0 775 250 0 800 250 0 825 250 0 850 250 0 875 250 0 900 250 0 925 250 0 950 250 0 975 250 0 1000 250 0 0 275 0 25 275 0 50 275 0 75 275 0 100 275 0 125 275 0 150 275 0 175 275 0 200 275 0 225 275 0 250 275 0 275 275 0 300 275 0 325 275 0 350 275 0 375 275 0 400 275 0 425 275 0 450 275 0 475 275 0 500 275 0 525 275 0 550 275 0 575 275 0 600 275 0 625 275 0 650 275 0 675 275 0 700 275 0 725 275 0 750 275 0 775 275 0 800 275 0 825 275 0 850 275 0 875 275 0 900 275 0 925 275 0 950 275 0 975 275 0 1000 275 0 0 300 0 25 300 0 50 300 0 75 300 0 100 300 0 125 300 0 150 300 0 175 300 0 200 300 0 225 300 0 250 300 0 275 300 0 300 300 0 325 300 0 350 300 0 375 300 0 400 300 0 425 300 0 450 300 0 475 300 0 500 300 0 525 300 0 550 300 0 575 300 0 600 300 0 625 300 0 650 300 0 675 300 0 700 300 0 725 300 0 750 300 0 775 300 0 800 300 0 825 300 0 850 300 0 875 300 0 900 300 0 925 300 0 950 300 0 975 300 0 1000 300 0 0 325 0 25 325 0 50 325 0 75 325 0 100 325 0 125 325 0 150 325 0 175 325 0 200 325 0 225 325 0 250 325 0 275 325 0 300 325 0 325 325 0 350 325 0 375 325 0 400 325 0 425 325 0 450 325 0 475 325 0 500 325 0 525 325 0 550 325 0 575 325 0 600 325 0 625 325 0 650 325 0 675 325 0 700 325 0 725 325 0 750 325 0 775 325 0 800 325 0 825 325 0 850 325 0 875 325 0 900 325 0 925 325 0 950 325 0 975 325 0 1000 325 0 0 350 0 25 350 0 50 350 0 75 350 0 100 350 0 125 350 0 150 350 0 175 350 0 200 350 0 225 350 0 250 350 0 275 350 0 300 350 0 325 350 0 350 350 0 375 350 0 400 350 0 425 350 0 450 350 0 475 350 0 500 350 0 525 350 0 550 350 0 575 350 0 600 350 0 625 350 0 650 350 0 675 350 0 700 350 0 725 350 0 750 350 0 775 350 0 800 350 0 825 350 0 850 350 0 875 350 0 900 350 0 925 350 0 950 350 0 975 350 0 1000 350 0 0 375 0 25 375 0 50 375 0 75 375 0 100 375 0 125 375 0 150 375 0 175 375 0 200 375 0 225 375 0 250 375 0 275 375 0 300 375 0 325 375 0 350 375 0 375 375 0 400 375 0 425 375 0 450 375 0 475 375 0 500 375 0 525 375 0 550 375 0 575 375 0 600 375 0 625 375 0 650 375 0 675 375 0 700 375 0 725 375 0 750 375 0 775 375 0 800 375 0 825 375 0 850 375 0 875 375 0 900 375 0 925 375 0 950 375 0 975 375 0 1000 375 0 0 400 0 25 400 0 50 400 0 75 400 0 100 400 0 125 400 0 150 400 0 175 400 0 200 400 0 225 400 0 250 400 0 275 400 0 300 400 0 325 400 0 350 400 0 375 400 0 400 400 0 425 400 0 450 400 0 475 400 0 500 400 0 525 400 0 550 400 0 575 400 0 600 400 0 625 400 0 650 400 0 675 400 0 700 400 0 725 400 0 750 400 0 775 400 0 800 400 0 825 400 0 850 400 0 875 400 0 900 400 0 925 400 0 950 400 0 975 400 0 1000 400 0 0 425 0 25 425 0 50 425 0 75 425 0 100 425 0 125 425 0 150 425 0 175 425 0 200 425 0 225 425 0 250 425 0 275 425 0 300 425 0 325 425 0 350 425 0 375 425 0 400 425 0 425 425 0 450 425 0 475 425 0 500 425 0 525 425 0 550 425 0 575 425 0 600 425 0 625 425 0 650 425 0 675 425 0 700 425 0 725 425 0 750 425 0 775 425 0 800 425 0 825 425 0 850 425 0 875 425 0 900 425 0 925 425 0 950 425 0 975 425 0 1000 425 0 0 450 0 25 450 0 50 450 0 75 450 0 100 450 0 125 450 0 150 450 0 175 450 0 200 450 0 225 450 0 250 450 0 275 450 0 300 450 0 325 450 0 350 450 0 375 450 0 400 450 0 425 450 0 450 450 0 475 450 0 500 450 0 525 450 0 550 450 0 575 450 0 600 450 0 625 450 0 650 450 0 675 450 0 700 450 0 725 450 0 750 450 0 775 450 0 800 450 0 825 450 0 850 450 0 875 450 0 900 450 0 925 450 0 950 450 0 975 450 0 1000 450 0 0 475 0 25 475 0 50 475 0 75 475 0 100 475 0 125 475 0 150 475 0 175 475 0 200 475 0 225 475 0 250 475 0 275 475 0 300 475 0 325 475 0 350 475 0 375 475 0 400 475 0 425 475 0 450 475 0 475 475 0 500 475 0 525 475 0 550 475 0 575 475 0 600 475 0 625 475 0 650 475 0 675 475 0 700 475 0 725 475 0 750 475 0 775 475 0 800 475 0 825 475 0 850 475 0 875 475 0 900 475 0 925 475 0 950 475 0 975 475 0 1000 475 0 0 500 0 25 500 0 50 500 0 75 500 0 100 500 0 125 500 0 150 500 0 175 500 0 200 500 0 225 500 0 250 500 0 275 500 0 300 500 0 325 500 0 350 500 0 375 500 0 400 500 0 425 500 0 450 500 0 475 500 0 500 500 0 525 500 0 550 500 0 575 500 0 600 500 0 625 500 0 650 500 0 675 500 0 700 500 0 725 500 0 750 500 0 775 500 0 800 500 0 825 500 0 850 500 0 875 500 0 900 500 0 925 500 0 950 500 0 975 500 0 1000 500 0 0 525 0 25 525 0 50 525 0 75 525 0 100 525 0 125 525 0 150 525 0 175 525 0 200 525 0 225 525 0 250 525 0 275 525 0 300 525 0 325 525 0 350 525 0 375 525 0 400 525 0 425 525 0 450 525 0 475 525 0 500 525 0 525 525 0 550 525 0 575 525 0 600 525 0 625 525 0 650 525 0 675 525 0 700 525 0 725 525 0 750 525 0 775 525 0 800 525 0 825 525 0 850 525 0 875 525 0 900 525 0 925 525 0 950 525 0 975 525 0 1000 525 0 0 550 0 25 550 0 50 550 0 75 550 0 100 550 0 125 550 0 150 550 0 175 550 0 200 550 0 225 550 0 250 550 0 275 550 0 300 550 0 325 550 0 350 550 0 375 550 0 400 550 0 425 550 0 450 550 0 475 550 0 500 550 0 525 550 0 550 550 0 575 550 0 600 550 0 625 550 0 650 550 0 675 550 0 700 550 0 725 550 0 750 550 0 775 550 0 800 550 0 825 550 0 850 550 0 875 550 0 900 550 0 925 550 0 950 550 0 975 550 0 1000 550 0 0 575 0 25 575 0 50 575 0 75 575 0 100 575 0 125 575 0 150 575 0 175 575 0 200 575 0 225 575 0 250 575 0 275 575 0 300 575 0 325 575 0 350 575 0 375 575 0 400 575 0 425 575 0 450 575 0 475 575 0 500 575 0 525 575 0 550 575 0 575 575 0 600 575 0 625 575 0 650 575 0 675 575 0 700 575 0 725 575 0 750 575 0 775 575 0 800 575 0 825 575 0 850 575 0 875 575 0 900 575 0 925 575 0 950 575 0 975 575 0 1000 575 0 0 600 0 25 600 0 50 600 0 75 600 0 100 600 0 125 600 0 150 600 0 175 600 0 200 600 0 225 600 0 250 600 0 275 600 0 300 600 0 325 600 0 350 600 0 375 600 0 400 600 0 425 600 0 450 600 0 475 600 0 500 600 0 525 600 0 550 600 0 575 600 0 600 600 0 625 600 0 650 600 0 675 600 0 700 600 0 725 600 0 750 600 0 775 600 0 800 600 0 825 600 0 850 600 0 875 600 0 900 600 0 925 600 
[...]
POINT_DATA 1681

VECTORS displacement double
0 0 0 -11.034817630343573 10.35104004774941 0 -17.393183959941418 12.264875192754152 0 -21.40065650587343 12.395000954838471 0 -24.281152642060576 11.773717143445245 0 -26.530232535217422 10.754517146023403 0 -28.380393518451644 9.486740908754836 0 -29.958175217565593 8.050046851466092 0 -31.340387406992573 6.491458609016042 0 -32.57736656631689 4.840713017468742 0 -33.70397616126695 3.1174535521778504 0 -34.74538792314501 1.3350485329062252 0 -35.72037581687791 -0.49722152302092776 0 -36.64331673056342 -2.3728325754919615 0 -37.52547221495775 -4.287167828054621 0 -38.375848823280734 -6.236955887424575 0 -39.20180091830285 -8.219888923180335 0 -40.00947096823281 -10.234358790263437 0 -40.80412507424657 -12.279273954008962 0 -41.590420483085644 -14.353934413974507 0 -42.37262971937691 -16.45795054312177 0 -43.15483895566812 -18.59119738591292 0 -43.94113436450718 -20.753799897885727 0 -44.73578847052091 -22.946147706078605 0 -45.543458520450855 -25.168940810933872 0 -46.369410615472965 -27.423270747116497 0 -47.21978722379594 -29.710745659684946 0 -48.10194270819027 -32.03367337906069 0 -49.024883621875766 -34.39532529852801 0 -49.9998715156087 -36.80031821453924 0 -51.041283277486805 -39.255176167206045 0 -52.167892872436894 -41.76917967385359 0 -53.404872031761215 -44.35569705424474 0 -54.78708422118821 -47.03437178373318 0 -56.364865920302215 -49.83494069838297 0 -58.21502690353648 -52.80442743305292 0 -60.46410679669341 -56.02249040756964 0 -63.34460293288067 -59.63846956811503 0 -67.3520754788128 -64.00585830213814 0 -73.71044180841076 -70.15695641908181 0 -84.74525943875435 -84.74525943877148 0 -18.42744665591071 3.9007532796104534 0 -18.26991200827427 11.138281842925565 0 -19.89620991168946 13.096509025135735 0 -22.038321935339244 13.107955432574057 0 -24.02146410132463 12.380420688366902 0 -25.765013514102698 11.27452295286715 0 -27.297041178940418 9.940208085463373 0 -28.65877502316518 8.452443857987399 0 -29.88572963091375 6.854325115220452 0 -31.005974817482336 5.17267615493294 0 -32.04136722549846 3.4250601659352387 0 -33.00901067291319 1.6233515906741474 0 -33.92243701739282 -0.22425682508919487 0 -34.792490283028805 -2.112044890665292 0 -35.627979750999884 -4.035996981112951 0 -36.43616686419883 -5.993294378231147 0 -37.223135370077564 -7.9819699029244955 0 -37.99407999958205 -10.000668779326011 0 -38.753538572466304 -12.048482354979415 0 -39.50558528659863 -14.124834257903979 0 -40.25399823340768 -16.229406395009768 0 -41.00241118021674 -18.36209722984239 0 -41.754457894349045 -20.523008298856194 0 -42.51391646723328 -22.71245769514118 0 -43.284861096737764 -24.931021790678027 0 -44.07182960261649 -27.179609237923085 0 -44.8800167158154 -29.45957481274328 0 -45.715506183786495 -31.772885694234013 0 -46.58555944942247 -34.12236060059628 0 -47.49898579390211 -36.512015156771305 0 -48.466629241316845 -38.94756955344865 0 -49.50202164933299 -41.437216536389386 0 -50.62226683590156 -43.99283054804035 0 -51.849221443650116 -46.63197477721187 0 -53.21095528787489 -49.381473521674415 0 -54.742982952712666 -52.284421626209145 0 -56.48653236549077 -55.41578686264795 0 -58.46967453147616 -58.92551509037944 0 -60.611786555125896 -63.17422446975651 0 -62.23808445854097 -69.36971462390571 0 -62.08054981090462 -80.8445061591599 0 -22.339026733609067 7.520233224196209 0 -22.902590161172412 10.823150484329735 0 -22.901896387959457 12.961125718332147 0 -23.48616267956144 13.250458240466552 0 -24.44923907200377 12.640986247151297 0 -25.534009952351788 11.573967169055933 0 -26.625195233784076 10.245240381208708 0 -27.67873475964048 8.750173814531985 0 -28.681401191883058 7.140406143020177 0 -29.632510947415376 5.446362456134321 0 -30.536242699660534 3.687093557818946 0 -31.39838142897856 1.8750344180033565 0 -32.224944657169594 0.018526405718521342 0 -33.02162635182514 -1.876741183801014 0 -33.79360459439447 -3.806855015067557 0 -34.545512406196046 -5.769118843980475 0 -35.281480771300075 -7.761683800335057 0 -36.00521199512146 -9.783297849178936 0 -36.720064232433714 -11.833134388211448 0 -37.42913876141811 -13.910676284827995 0 -38.135366747438454 -16.015641119236122 0 -38.84159473345881 -18.147939256766403 0 -39.5506692624432 -20.307660332088233 0 -40.26552149975543 -22.495086764994102 0 -40.989252723576804 -24.7107356880886 0 -41.7252210886808 -26.955433703672412 0 -42.47712890048239 -29.230432846697877 0 -43.249107143051724 -31.53758198736972 0 -44.045788837707285 -33.87957736978856 0 -44.8723520658983 -36.26033232944212 0 -45.73449079521631 -38.68553616156495 0 -46.63822254746144 -41.163530235188006 0 -47.589332302993746 -43.706749520240635 0 -48.591998735236324 -46.334244820667294 0 -49.64553826109274 -49.076441225929045 0 -50.73672354252501 -51.98497741002034 0 -51.821494422873016 -55.15522130386353 0 -52.78457081531529 -58.783012282486936 0 -53.3688371069172 -63.3096077765601 0 -53.36814333370423 -69.6848459825013 0 -53.93170676126765 -77.22502621457355 0 -24.04997796697403 10.060620683781465 0 -24.41888759899822 11.442328313330963 0 -24.487214171695705 12.688108275065632 0 -24.557060369833277 13.048919355522223 0 -24.895174484209658 12.593604859889483 0 -25.450822355136093 11.635947482797564 0 -26.130409651875585 10.37220755363235 0 -26.86895686700163 8.913658132958195 0 -27.62875137014552 7.323659598277546 0 -28.389596603310597 5.639786665911311 0 -29.14142607318984 3.8852500973935817 0 -29.879840690196318 2.0748912963413018 0 -30.603558541162066 0.2184489873778924 0 -31.312979474154954 -1.6775723065533696 0 -32.00937969305831 -3.6087831382178432 0 -32.694462188547256 -5.572210502857717 0 -33.37010997289469 -7.5658465721133865 0 -34.03825624208783 -9.588349892685715 0 -34.70082261271925 -11.638845144147005 0 -35.35969713345572 -13.716789967660658 0 -36.01673526146925 -15.821890234111395 0 -36.67377338948276 -17.95405293959906 0 -37.332647910219215 -20.1133710880238 0 -37.9952142808506 -22.30013880850089 0 -38.663360550043734 -24.514898459866938 0 -39.33900833439119 -26.75852536254965 0 -40.024090829880144 -29.032360969848163 0 -40.720491048783494 -31.338413110122072 0 -41.42991198177638 -33.67965478812919 0 -42.15362983274212 -36.060475451104196 0 -42.89204444974857 -38.487379621990335 0 -43.64387391962775 -40.97010602541103 0 -44.40471915279283 -43.52349606498327 0 -45.164513655936695 -46.1707605022411 0 -45.9030608710627 -48.94947405350543 0 -46.58264816780218 -51.922997096278706 0 -47.13829603872859 -55.20260269112536 0 -47.476410153104915 -58.98455116743126 0 -47.54625635124244 -63.58262521982651 0 -47.61458292393993 -69.06566815349986 0 -47.98349255596417 -74.68463875498793 0 -24.45688265744129 11.897180862603134 0 -24.801395562082707 12.261434624836582 0 -24.897312682506666 12.753218461891402 0 -24.905706297996232 12.851402531381522 0 -24.99327016151995 12.419570164187505 0 -25.234698771466846 11.543529839128238 0 -25.613071121252815 10.3554838099138 0 -26.089269242623306 8.954043725616884 0 -26.628660724510166 7.404432109288859 0 -27.20624549119244 5.748489905475143 0 -27.805405799030222 4.013168185062837 0 -28.415579036432888 2.21605437948178 0 -29.030287219403 0.36878770024421903 0 -29.645726554641904 -1.5208409926801845 0 -30.25981836583353 -3.447578194537319 0 -30.871586671757573 -5.407871776225066 0 -31.480754547746916 -7.399326475616538 0 -32.08748368575291 -9.42034324622086 0 -32.69220661156278 -11.469878571635112 0 -33.295518147213116 -13.547285362525837 0 -33.89810377550003 -15.65221233477904 0 -34.500689403786936 -17.78454833446424 0 -35.10400093943725 -19.94440451551191 0 -35.708723865247094 -22.132132162036044 0 -36.3154530032531 -24.348378363370085 0 -36.924620879242454 -26.594186635916987 0 -37.53638918516649 -28.87115602616764 0 -38.15048099635814 -31.181681796248892 0 -38.765920331597016 -33.52931607526288 0 -39.3806285145671 -35.91931236796373 0 -39.99080175196974 -38.35946153432111 0 -40.589962059807476 -40.861402785847226 0 -41.16754682648973 -43.442723553971966 0 -41.70693830837658 -46.13037490958242 0 -42.18313642974702 -48.96619779722398 0 -42.56150877953295 -52.01541473994802 0 -42.80293738947982 -55.37663738682733 0 -42.89050125300351 -59.18206799157193 0 -42.89889486849304 -63.51751503300064 0 -42.99481198891701 -68.24656184199404 0 -43.33932489355848 -72.84807857616597 0 -24.212792554924995 13.331195539745146 0 -24.509355936729527 13.080307529279654 0 -24.63598074745936 13.012918798025638 0 -24.652731666224504 12.794478302348779 0 -24.66839008358521 12.260513283030381 0 -24.758875614489277 11.396062072504208 0 -24.95112108155629 10.25577174722365 0 -25.238060341723067 8.906155684388438 0 -25.600953903851693 7.401650002618233 0 -26.020500609591473 5.781970475474825 0 -26.480651845898908 4.074847892226288 0 -26.96920245192231 2.2993633515067895 0 -27.477277770145097 0.4686023648954813 0 -27.998587492896856 -1.4084557984748027 0 -28.52874628663041 -3.325644577355184 0 -29.064735050017614 -5.278733598999274 0 -29.604497761596658 -7.264834441160497 0 -30.146647233279758 -9.2819966942305 0 -30.69025159493651 -11.328933981123862 0 -31.234677658382527 -13.4048410973652 0 -31.77947228953082 -15.509277751613265 0 -32.324266920679094 -17.64210406930361 0 -32.868692984125104 -19.80345992500067 0 -33.41229734578182 -21.9937856100457 0 -33.95444681746493 -24.213886328914036 0 -34.494209529043985 -26.465048458691196 0 -35.0301982924312 -28.74922240898551 0 -35.560357086164736 -31.069296602043515 0 -36.081666808916474 -33.42950141061162 0 -36.58974212713924 -35.83600339593874 0 -37.07829273316261 -38.297781827157685 0 -37.538443969470016 -40.82792221584755 0 -37.95799067520976 -43.445505660642596 0 -38.32088423733835 -46.17826295081088 0 -38.60782349750509 -49.065909859914115 0 -38.800068964572056 -52.16288250657207 0 -38.89055449547608 -55.535694267984425 0 -38.906212912836764 -59.238992220604615 0 -38.92296383160191 -63.25781469686628 0 -39.04958864233177 -67.42768893755078 0 -39.346152024136344 -71.41406389902377 0 -23.540125494669912 14.499248829580322 0 -23.799557867581832 13.840034190528334 0 -23.935576285657614 13.365231901445712 0 -23.97373486612022 12.855741930809653 0 -23.976644279931286 12.171113502955686 0 -24.004944317789946 11.259157649652055 0 -24.094915121721296 10.12744794755678 0 -24.25856218594445 8.809240590470377 0 -24.492416998603673 7.341866255460346 0 -24.786412314992425 5.757494781392686 0 -25.129062263974912 4.081150554966396 0 -25.509813027122696 2.3313840283570677 0 -25.919825229108177 0.5216210492225972 0 -26.352031221004705 -1.3385454831356547 0 -26.800912260226806 -3.242316179552096 0 -27.262202627244456 -5.184904809091974 0 -27.73260576541212 -7.162971119601594 0 -28.20955044099779 -9.17421612882309 0 -28.690990234170712 -11.217098143217758 0 -29.175240104788195 -13.290638736362586 0 -29.660840803561598 -15.394297464840177 0 -30.146441502335 -17.527901708301002 0 -30.630691372952484 -19.691624087094556 0 -31.112131166125412 -21.886005044638285 0 -31.58907584171108 -24.112023007355134 0 -32.05947897987875 -26.371219668783898 0 -32.5207693468964 -28.66589401118243 0 -32.96965038611849 -30.99938628670439 0 -33.401856378014976 -33.37648272628452 0 -33.81186858000042 -35.80398271908847 0 -34.19261934314818 -38.291479164417574 0 -34.535269292130636 -40.8523979099297 0 -34.82926460851935 -43.50528940780049 0 -35.063119421178556 -46.27517804472894 0 -35.226766485401654 -49.194233659580995 0 -35.31673728933298 -52.29978692942419 0 -35.34503732719159 -55.62509404805909 0 -35.34794674100266 -59.17772859214366 0 -35.386105321465266 -62.90550159344608 0 -35.52212373954107 -66.66796227630196 0 -35.781556112453025 -70.2460106091884 0 -22.57006976231041 15.47825044341686 0 -22.797284005455015 14.528510233234936 0 -22.933081436385248 13.750440385127453 0 -22.986952865702364 12.99523779179947 0 -22.99573597687601 12.151865355262187 0 -23.00245470926326 11.160695923530293 0 -23.040806275916363 10.005196961282564 0 -23.12965203009958 8.694932481339052 0 -23.275131900121607 7.250474943580553 0 -23.47525718036784 5.694178558777994 0 -23.724030120441398 4.0459398901516 0 -24.014102818017545 2.3219274646669184 0 -24.338204065708354 0.5346543682019962 0 -24.68977582002383 -1.306469090646194 0 -25.063171540339706 -3.194497102239386 0 -25.45363740914692 -5.12437572716482 0 -25.857199628992213 -7.092478577763401 0 -26.270520666298086 -9.096250198091017 0 -26.690753457862115 -11.133942636010186 0 -27.11540469855687 -13.204428871308608 0 -27.542209317592402 -15.307079360822764 0 -27.969013936627928 -17.441691843247014 0 -28.393665177322685 -19.608468579886978 0 -28.81389796888671 -21.808039113906204 0 -29.227219006192588 -24.041530465516953 0 -29.630781226037886 -26.31069058685675 0 -30.021247094845098 -28.61807493386972 0 -30.394642815160964 -30.96730989421493 0 -30.74621456947642 -33.36344940730515 0 -31.070315817167188 -35.813439282778624 0 -31.360388514743292 -38.326689829232365 0 -31.609161454816824 -40.9157141325444 0 -31.80928673506301 -43.59668071968027 0 -31.954766605085005 -46.38948615386026 0 -32.04361235926822 -49.31648464585519 0 -32.081963925921286 -52.39824865554592 0 -32.08868265830851 -55.644342195752536 0 -32.09746576948214 -59.03823273115374 0 -32.15133719879926 -62.52029310976424 0 -32.28713462972951 -65.97948623359522 0 -32.51434887287416 -69.2670089953517 0 -21.379309344637107 16.313209639231427 0 -21.579001360446632 15.146631183651925 0 -21.70897175429555 14.137113784907726 0 -21.771985904093622 13.179519780870553 0 -21.789832721326494 12.187567548143981 0 -21.79223541913063 11.10511594176674 0 -21.806580501892306 9.905475095920126 0 -21.852324764595775 8.583647204538513 0 -21.940006760283 7.147188841670814 0 -22.07297400146108 5.609019886064557 0 -22.24984796376088 3.9830128457444496 0 -22.46665881282164 2.2818066390804668 0 -22.71832084470133 0.5160015787947251 0 -22.999517223868725 -1.3059327840998263 0 -23.30516522784334 -3.177439870169989 0 -23.630618097388233 -5.09356092381427 0 -23.97171479482318 -7.050622225151485 0 -24.324748171970484 -9.045965140496497 0 -24.686392845028106 -11.077731057942007 0 -25.053615342104766 -13.144701089160222 0 -25.423577831623195 -15.246186317135898 0 -25.79354032114162 -17.38196406109863 0 -26.160762818218277 -19.552257001818795 0 -26.52240749127591 -21.757754056311683 0 -26.875440868423226 -23.99967411290504 0 -27.21653756585818 -26.279875783506213 0 -27.54199043540307 -28.601017701800338 0 -27.847638439377675 -30.966773587668566 0 -28.128834818545037 -33.38210219671243 0 -28.380496850424706 -35.85356010836511 0 -28.597307699485437 -38.38961687363953 0 -28.7741816617852 -41.00087280525784 0 -28.907148902963236 -43.69996682159002 0 -28.99483089865044 -46.50077143066077 0 -29.040575161353882 -49.41620651121761 0 -29.054920244115525 -52.45382863730944 0 -29.05732294191965 -55.608640002870686 0 -29.07516975915252 -58.85395074208259 0 -29.13818390895057 -62.13361970998388 0 -29.268154302799502 -65.3613652831781 0 -29.467846318609066 -68.43204979953701 0 -20.01858276969335 17.03278082459933 0 -20.19421326864145 15.698714712672182 0 -20.315511311831745 14.50855609707326 0 -20.382304838906048 13.385161859864768 0 -20.407722194781137 12.261079656343131 0 -20.412125980545895 11.086870151373446 0 -20.416639784105843 9.832866040715214 0 -20.438614621798564 8.48608666933781 0 -20.489733835738896 7.045109603369065 0 -20.57614905925195 5.51512954571433 0 -20.699650950971808 3.904262570055827 0 -20.859066366067825 2.221235844084884 0 -21.051458748052855 0.4741612778352753 0 -21.272999776334654 -1.3299878254371296 0 -21.51953397424854 -3.1855031084297956 0 -21.786908298246445 -5.087871332979313 0 -22.07113998348267 -7.033625999229851 0 -22.368480435592883 -9.020183414323652 0 -22.675415636923674 -11.04569411091736 0 -22.98862946431678 -13.108923091945853 0 -23.304946345653992 -15.209163693332979 0 -23.62126322699122 -17.346186063884257 0 -23.93447705438434 -19.52022005479414 0 -24.241412255715126 -21.731972330138834 0 -24.538752707825356 -23.982677886983403 0 -24.822984393061585 -26.27418619267127 0 -25.090358717059477 -28.60908094006015 0 -25.336892914973344 -30.99082862900588 0 -25.55843394325512 -33.423942497671895 0 -25.750826325240126 -35.9141309033607 0 -25.91024174033612 -38.46836714932817 0 -26.03374363205593 -41.09476314560808 0 -26.12015885556895 -43.80204605989176 0 -26.171278069509242 -46.59833196586145 0 -26.19325290720195 -49.4888155664225 0 -26.197766710761876 -52.47207442770271 0 -26.202170496526612 -55.535127894671476 0 -26.227587852401687 -58.6483086630883 0 -26.294381379475997 -61.762177397818256 0 -26.4156794226663 -64.80928175415775 0 -26.59130992161444 -67.71247861416897 0 -18.523303935281845 17.6560799866752 0 -18.677522997557436 16.189498881663024 0 -18.78867628024688 14.855825493813565 0 -18.855415306140998 13.596437000441355 0 -18.88576333719347 12.357783986414566 0 -18.893725940144787 11.097319145216279 0 -18.895212007325583 9.785775320151995 0 -18.904694484934968 8.406294136963632 0 -18.93328497681156 6.951742617560566 0 -18.98816955544503 5.421553452253496 0 -19.0729574478924 3.8189563374189794 0 -19.188451017623546 2.1489447785945677 0 -19.333482495368937 0.41697191129850075 0 -19.505633344435118 -1.3717861058919951 0 -19.70177585669128 -3.2127843772409177 0 -19.918443611639304 -5.1022330682628825 0 -20.152063290149588 -7.037096688253338 0 -20.399084294817815 -9.015035965535157 0 -20.656037547565145 -11.034331872245 0 -20.91954751243843 -13.09381372018064 0 -21.186314859684813 -15.19280274330978 0 -21.453082206931203 -17.331076692119037 0 -21.716592171804482 -19.50885781612178 0 -21.973545424551805 -21.726824881350343 0 -22.220566429220053 -23.986148576006894 0 -22.454186107730322 -26.288547927954827 0 -22.67085386267835 -28.63636220887129 0 -22.866996374934473 -31.03262690946076 0 -23.03914722400064 -33.48113186420868 0 -23.18417870174602 -35.98642196885102 0 -23.29967227147715 -38.55367338196503 0 -23.384460163924487 -41.18833923906893 0 -23.43934474255791 -43.89541304570027 0 -23.467935234434464 -46.678124498235626 0 -23.47741771204382 -49.53590628698572 0 -23.478903779224595 -52.46162543385986 0 -23.486866382175897 -55.438423564600015 0 -23.517214413228373 -58.43703352251166 0 -23.583953439122475 -61.414908001077876 0 -23.695106721811936 -64.3184975851668 0 -23.84932578408755 -67.08917945209302 0 -16.919572230405127 18.196383591550806 0 -17.054393293433407 16.623255438529064 0 -17.15468054170652 15.174097995090499 0 -17.218705759286195 13.802892975235661 0 -17.251432028668383 12.466289529999973 0 -17.26256488536346 11.127807947278828 0 -17.263969245176494 9.759967560517282 0 -17.267296146552113 8.344403452246826 0 -17.282341202596413 6.870587164841145 0 -17.316256306352262 5.3339133455741985 0 -17.373455018928315 3.7337605873968136 0 -17.45594388308637 2.0718708766342813 0 -17.563834710895442 0.35116073300283857 0 -17.69587111129993 -1.4250646861134313 0 -17.849882165537185 -3.253582763406273 0 -18.02313295833731 -5.131505718165216 0 -18.212573755566 -7.056394104107335 0 -18.415003666640935 -9.026290057286529 0 -18.627168284523275 -11.039709640661584 0 -18.845809568632617 -13.095619140169067 0 -19.06768337371564 -15.193410192387374 0 -19.28955717879866 -17.33288211210746 0 -19.508198462907995 -19.51423558453837 0 -19.720363080790325 -21.738078973101707 0 -19.92279299186526 -24.00544599186089 0 -20.112233789093946 -26.31782057785717 0 -20.285484581894043 -28.67716059503665 0 -20.43949563613127 -31.085905489682208 0 -20.571532036535743 -33.546943042504346 0 -20.67942286434479 -36.06349587081131 0 -20.761911728502824 -38.63886913198721 0 -20.819110441078845 -41.275979345748226 0 -20.853025544834665 -43.976568498419695 0 -20.868070600878934 -46.74001518295244 0 -20.87139750225452 -49.561714046620416 0 -20.872801862067544 -52.4311366317973 0 -20.883934718762614 -55.329918021014585 0 -20.916660988144788 -58.23057754771731 0 -20.98068620572447 -61.096635499800875 0 -21.080973453997593 -63.88474102830068 0 -21.21579451702589 -66.54887584721732 0 -15.227452864993525 18.6631887