# vtk DataFile Version 4.2
Tri2D3N
ASCII

DATASET UNSTRUCTURED_GRID
POINTS 1681 double
0 0 0 25 0 0 50 0 0 75 0 0 100 0 0 125 0 0 150 0 0 175 0 0 200 0 0 225 0 0 250 0 0 275 0 0 300 0 0 325 0 0 350 0 0 375 0 0 400 0 0 425 0 0 450 0 0 475 0 0 500 0 0 525 0 0 550 0 0 575 0 0 600 0 0 625 0 0 650 0 0 675 0 0 700 0 0 725 0 0 750 0 0 775 0 0 800 0 0 825 0 0 850 0 0 875 0 0 900 0 0 925 0 0 950 0 0 975 0 0 1000 0 0 0 25 0 25 25 0 50 25 0 75 25 0 100 25 0 125 25 0 150 25 0 175 25 0 200 25 0 225 25 0 250 25 0 275 25 0 300 25 0 325 25 0 350 25 0 375 25 0 400 25 0 425 25 0 450 25 0 475 25 0 500 25 0 525 25 0 550 25 0 575 25 0 600 25 0 625 25 0 650 25 0 675 25 0 700 25 0 725 25 0 750 25 0 775 25 0 800 25 0 825 25 0 850 25 0 875 25 0 900 25 0 925 25 0 950 25 0 975 25 0 1000 25 0 0 50 0 25 50 0 50 50 0 75 50 0 100 50 0 125 50 0 150 50 0 175 50 0 200 50 0 225 50 0 250 50 0 275 50 0 300 50 0 325 50 0 350 50 0 375 50 0 400 50 0 425 50 0 450 50 0 475 50 0 500 50 0 525 50 0 550 50 0 575 50 0 600 50 0 625 50 0 650 50 0 675 50 0 700 50 0 725 50 0 750 50 0 775 50 0 800 50 0 825 50 0 850 50 0 875 50 0 900 50 0 925 50 0 950 50 0 975 50 0 1000 50 0 0 75 0 25 75 0 50 75 0 75 75 0 100 75 0 125 75 0 150 75 0 175 75 0 200 75 0 225 75 0 250 75 0 275 75 0 300 75 0 325 75 0 350 75 0 375 75 0 400 75 0 425 75 0 450 75 0 475 75 0 500 75 0 525 75 0 550 75 0 575 75 0 600 75 0 625 75 0 650 75 0 675 75 0 700 75 0 725 75 0 750 75 0 775 75 0 800 75 0 825 75 0 850 75 0 875 75 0 900 75 0 925 75 0 950 75 0 975 75 0 1000 75 0 0 100 0 25 100 0 50 100 0 75 100 0 100 100 0 125 100 0 150 100 0 175 100 0 200 100 0 225 100 0 250 100 0 275 100 0 300 100 0 325 100 0 350 100 0 375 100 0 400 100 0 425 100 0 450 100 0 475 100 0 500 100 0 525 100 0 550 100 0 575 100 0 600 100 0 625 100 0 650 100 0 675 100 0 700 100 0 725 100 0 750 100 0 775 100 0 800 100 0 825 100 0 850 100 0 875 100 0 900 100 0 925 100 0 950 100 0 975 100 0 1000 100 0 0 125 0 25 125 0 50 125 0 75 125 0 100 125 0 125 125 0 150 125 0 175 125 0 200 125 0 225 125 0 250 125 0 275 125 0 300 125 0 325 125 0 350 125 0 375 125 0 400 125 0 425 125 0 450 125 0 475 125 0 500 125 0 525 125 0 550 125 0 575 125 0 600 125 0 625 125 0 650 125 0 675 125 0 700 125 0 725 125 0 750 125 0 775 125 0 800 125 0 825 125 0 850 125 0 875 125 0 900 125 0 925 125 0 950 125 0 975 125 0 1000 125 0 0 150 0 25 150 0 50 150 0 75 150 0 100 150 0 125 150 0 150 150 0 175 150 0 200 150 0 225 150 0 250 150 0 275 150 0 300 150 0 325 150 0 350 150 0 375 150 0 400 150 0 425 150 0 450 150 0 475 150 0 500 150 0 525 150 0 550 150 0 575 150 0 600 150 0 625 150 0 650 150 0 675 150 0 700 150 0 725 150 0 750 150 0 775 150 0 800 150 0 825 150 0 850 150 0 875 150 0 900 150 0 925 150 0 950 150 0 975 150 0 1000 150 0 0 175 0 25 175 0 50 175 0 75 175 0 100 175 0 125 175 0 150 175 0 175 175 0 200 175 0 225 175 0 250 175 0 275 175 0 300 175 0 325 175 0 350 175 0 375 175 0 400 175 0 425 175 0 450 175 0 475 175 0 500 175 0 525 175 0 550 175 0 575 175 0 600 175 0 625 175 0 650 175 0 675 175 0 700 175 0 725 175 0 750 175 0 775 175 0 800 175 0 825 175 0 850 175 0 875 175 0 900 175 0 925 175 0 950 175 0 975 175 0 1000 175 0 0 200 0 25 200 0 50 200 0 75 200 0 100 200 0 125 200 0 150 200 0 175 200 0 200 200 0 225 200 0 250 200 0 275 200 0 300 200 0 325 200 0 350 200 0 375 200 0 400 200 0 425 200 0 450 200 0 475 200 0 500 200 0 525 200 0 550 200 0 575 200 0 600 200 0 625 200 0 650 200 0 675 200 0 700 200 0 725 200 0 750 200 0 775 200 0 800 200 0 825 200 0 850 200 0 875 200 0 900 200 0 925 200 0 950 200 0 975 200 0 1000 200 0 0 225 0 25 225 0 50 225 0 75 225 0 100 225 0 125 225 0 150 225 0 175 225 0 200 225 0 225 225 0 250 225 0 275 225 0 300 225 0 325 225 0 350 225 0 375 225 0 400 225 0 425 225 0 450 225 0 475 225 0 500 225 0 525 225 0 550 225 0 575 225 0 600 225 0 625 225 0 650 225 0 675 225 0 700 225 0 725 225 0 750 225 0 775 225 0 800 225 0 825 225 0 850 225 0 875 225 0 900 225 0 925 225 0 950 225 0 975 225 0 1000 225 0 0 250 0 25 250 0 50 250 0 75 250 0 100 250 0 125 250 0 150 250 0 175 250 0 200 250 0 225 250 0 250 250 0 275 250 0 300 250 0 325 250 0 350 250 0 375 250 0 400 250 0 425 250 0 450 250 0 475 250 0 500 250 0 525 250 0 550 250 0 575 250 0 600 250 0 625 250 0 650 250 0 675 250 0 700 250 0 725 250 0 750 250 0 775 250 0 800 250 0 825 250 0 850 250 0 875 250 0 900 250 0 925 250 0 950 250 0 975 250 0 1000 250 0 0 275 0 25 275 0 50 275 0 75 275 0 100 275 0 125 275 0 150 275 0 175 275 0 200 275 0 225 275 0 250 275 0 275 275 0 300 275 0 325 275 0 350 275 0 375 275 0 400 275 0 425 275 0 450 275 0 475 275 0 500 275 0 525 275 0 550 275 0 575 275 0 600 275 0 625 275 0 650 275 0 675 275 0 700 275 0 725 275 0 750 275 0 775 275 0 800 275 0 825 275 0 850 275 0 875 275 0 900 275 0 925 275 0 950 275 0 975 275 0 1000 275 0 0 300 0 25 300 0 50 300 0 75 300 0 100 300 0 125 300 0 150 300 0 175 300 0 200 300 0 225 300 0 250 300 0 275 300 0 300 300 0 325 300 0 350 300 0 375 300 0 400 300 0 425 300 0 450 300 0 475 300 0 500 300 0 525 300 0 550 300 0 575 300 0 600 300 0 625 300 0 650 300 0 675 300 0 700 300 0 725 300 0 750 300 0 775 300 0 800 300 0 825 300 0 850 300 0 875 300 0 900 300 0 925 300 0 950 300 0 975 300 0 1000 300 0 0 325 0 25 325 0 50 325 0 75 325 0 100 325 0 125 325 0 150 325 0 175 325 0 200 325 0 225 325 0 250 325 0 275 325 0 300 325 0 325 325 0 350 325 0 375 325 0 400 325 0 425 325 0 450 325 0 475 325 0 500 325 0 525 325 0 550 325 0 575 325 0 600 325 0 625 325 0 650 325 0 675 325 0 700 325 0 725 325 0 750 325 0 775 325 0 800 325 0 825 325 0 850 325 0 875 325 0 900 325 0 925 325 0 950 325 0 975 325 0 1000 325 0 0 350 0 25 350 0 50 350 0 75 350 0 100 350 0 125 350 0 150 350 0 175 350 0 200 350 0 225 350 0 250 350 0 275 350 0 300 350 0 325 350 0 350 350 0 375 350 0 400 350 0 425 350 0 450 350 0 475 350 0 500 350 0 525 350 0 550 350 0 575 350 0 600 350 0 625 350 0 650 350 0 675 350 0 700 350 0 725 350 0 750 350 0 775 350 0 800 350 0 825 350 0 850 350 0 875 350 0 900 350 0 925 350 0 950 350 0 975 350 0 1000 350 0 0 375 0 25 375 0 50 375 0 75 375 0 100 375 0 125 375 0 150 375 0 175 375 0 200 375 0 225 375 0 250 375 0 275 375 0 300 375 0 325 375 0 350 375 0 375 375 0 400 375 0 425 375 0 450 375 0 475 375 0 500 375 0 525 375 0 550 375 0 575 375 0 600 375 0 625 375 0 650 375 0 675 375 0 700 375 0 725 375 0 750 375 0 775 375 0 800 375 0 825 375 0 850 375 0 875 375 0 900 375 0 925 375 0 950 375 0 975 375 0 1000 375 0 0 400 0 25 400 0 50 400 0 75 400 0 100 400 0 125 400 0 150 400 0 175 400 0 200 400 0 225 400 0 250 400 0 275 400 0 300 400 0 325 400 0 350 400 0 375 400 0 400 400 0 425 400 0 450 400 0 475 400 0 500 400 0 525 400 0 550 400 0 575 400 0 600 400 0 625 400 0 650 400 0 675 400 0 700 400 0 725 400 0 750 400 0 775 400 0 800 400 0 825 400 0 850 400 0 875 400 0 900 400 0 925 400 0 950 400 0 975 400 0 1000 400 0 0 425 0 25 425 0 50 425 0 75 425 0 100 425 0 125 425 0 150 425 0 175 425 0 200 425 0 225 425 0 250 425 0 275 425 0 300 425 0 325 425 0 350 425 0 375 425 0 400 425 0 425 425 0 450 425 0 475 425 0 500 425 0 525 425 0 550 425 0 575 425 0 600 425 0 625 425 0 650 425 0 675 425 0 700 425 0 725 425 0 750 425 0 775 425 0 800 425 0 825 425 0 850 425 0 875 425 0 900 425 0 925 425 0 950 425 0 975 425 0 1000 425 0 0 450 0 25 450 0 50 450 0 75 450 0 100 450 0 125 450 0 150 450 0 175 450 0 200 450 0 225 450 0 250 450 0 275 450 0 300 450 0 325 450 0 350 450 0 375 450 0 400 450 0 425 450 0 450 450 0 475 450 0 500 450 0 525 450 0 550 450 0 575 450 0 600 450 0 625 450 0 650 450 0 675 450 0 700 450 0 725 450 0 750 450 0 775 450 0 800 450 0 825 450 0 850 450 0 875 450 0 900 450 0 925 450 0 950 450 0 975 450 0 1000 450 0 0 475 0 25 475 0 50 475 0 75 475 0 100 475 0 125 475 0 150 475 0 175 475 0 200 475 0 225 475 0 250 475 0 275 475 0 300 475 0 325 475 0 350 475 0 375 475 0 400 475 0 425 475 0 450 475 0 475 475 0 500 475 0 525 475 0 550 475 0 575 475 0 600 475 0 625 475 0 650 475 0 675 475 0 700 475 0 725 475 0 750 475 0 775 475 0 800 475 0 825 475 0 850 475 0 875 475 0 900 475 0 925 475 0 950 475 0 975 475 0 1000 475 0 0 500 0 25 500 0 50 500 0 75 500 0 100 500 0 125 500 0 150 500 0 175 500 0 200 500 0 225 500 0 250 500 0 275 500 0 300 500 0 325 500 0 350 500 0 375 500 0 400 500 0 425 500 0 450 500 0 475 500 0 500 500 0 525 500 0 550 500 0 575 500 0 600 500 0 625 500 0 650 500 0 675 500 0 700 500 0 725 500 0 750 500 0 775 500 0 800 500 0 825 500 0 850 500 0 875 500 0 900 500 0 925 500 0 950 500 0 975 500 0 1000 500 0 0 525 0 25 525 0 50 525 0 75 525 0 100 525 0 125 525 0 150 525 0 175 525 0 200 525 0 225 525 0 250 525 0 275 525 0 300 525 0 325 525 0 350 525 0 375 525 0 400 525 0 425 525 0 450 525 0 475 525 0 500 525 0 525 525 0 550 525 0 575 525 0 600 525 0 625 525 0 650 525 0 675 525 0 700 525 0 725 525 0 750 525 0 775 525 0 800 525 0 825 525 0 850 525 0 875 525 0 900 525 0 925 525 0 950 525 0 975 525 0 1000 525 0 0 550 0 25 550 0 50 550 0 75 550 0 100 550 0 125 550 0 150 550 0 175 550 0 200 550 0 225 550 0 250 550 0 275 550 0 300 550 0 325 550 0 350 550 0 375 550 0 400 550 0 425 550 0 450 550 0 475 550 0 500 550 0 525 550 0 550 550 0 575 550 0 600 550 0 625 550 0 650 550 0 675 550 0 700 550 0 725 550 0 750 550 0 775 550 0 800 550 0 825 550 0 850 550 0 875 550 0 900 550 0 925 550 0 950 550 0 975 550 0 1000 550 0 0 575 0 25 575 0 50 575 0 75 575 0 100 575 0 125 575 0 150 575 0 175 575 0 200 575 0 225 575 0 250 575 0 275 575 0 300 575 0 325 575 0 350 575 0 375 575 0 400 575 0 425 575 0 450 575 0 475 575 0 500 575 0 525 575 0 550 575 0 575 575 0 600 575 0 625 575 0 650 575 0 675 575 0 700 575 0 725 575 0 750 575 0 775 575 0 800 575 0 825 575 0 850 575 0 875 575 0 900 575 0 925 575 0 950 575 0 975 575 0 1000 575 0 0 600 0 25 600 0 50 600 0 75 600 0 100 600 0 125 600 0 150 600 0 175 600 0 200 600 0 225 600 0 250 600 0 275 600 0 300 600 0 325 600 0 350 600 0 375 600 0 400 600 0 425 600 0 450 600 0 475 600 0 500 600 0 525 600 0 550 600 0 575 600 0 600 600 0 625 600 0 650 600 0 675 600 0 700 600 0 725 600 0 750 600 0 775 600 0 800 600 0 825 600 0 850 600 0 875 600 0 900 600 0 925 600 0
[...]
POINT_DATA 1681

VECTORS displacement double
0 0 0 -8.194269756066122 8.510200593895034 0 -13.373739668813645 10.957442319871097 0 -17.09909814196654 11.505392675960282 0 -19.932597560603476 11.21216796065683 0 -22.185990480839585 10.474067975300565 0 -24.047261883586394 9.469908879161574 0 -25.633953437259507 8.290963587189186 0 -27.022179572586946 6.988551016959753 0 -28.26308387055579 5.593815697170433 0 -29.392309538344414 4.126776033163104 0 -30.435552806985722 2.6008344916707262 0 -31.411905122819235 1.0252125614950143 0 -32.33592955924864 -0.5936365366989191 0 -33.21899770557432 -2.251156426410748 0 -34.070183789456514 -3.9441231546810203 0 -34.89688679273845 -5.670266312002921 0 -35.70528142651867 -7.4280089810946315 0 -36.50065946473904 -9.216288030442792 0 -37.2877003944508 -11.034431750799882 0 -38.070697277465214 -12.882080898145295 0 -38.85375617659624 -14.75914492879486 0 -39.640983358232496 -16.66578919139639 0 -40.436672647395156 -18.60245199910304 0 -41.24550531586648 -20.569893476322854 0 -42.0727767252505 -22.56928142848111 0 -42.9246680813885 -24.602323918886754 0 -43.808589156820226 -26.671464832009296 0 -44.73363077178662 -28.780169355402865 0 -45.71118801122946 -30.933344623268088 0 -46.75585359846024 -33.137973903820836 0 -47.886748360508875 -35.404105520725764 0 -49.12957554173085 -37.746461926876655 0 -50.51989883984614 -40.18719001123356 0 -52.10851806465935 -42.760819698212686 0 -53.97044487024122 -45.52370527694767 0 -56.219923112627704 -48.57298606333595 0 -59.03490669006904 -52.0866305305539 0 -62.69362620001509 -56.411730610385376 0 -67.61861371967065 -62.25794044382818 0 -74.45979084955242 -70.90177271716071 0 -13.448491159542444 4.186682624866594 0 -14.907657747047134 9.388370816320434 0 -16.642650096631886 11.506087359458471 0 -18.46791396601364 12.018896250996843 0 -20.22473004464413 11.703132898244956 0 -21.844168767535162 10.931792853997832 0 -23.313226685722665 9.890221524413652 0 -24.64357136112499 8.675495278796262 0 -25.854782375450995 7.341547148801706 0 -26.96699148971742 5.920162517568914 0 -27.998199807973915 4.431098563589535 0 -28.963637691254938 2.887181147119441 0 -29.875912458551056 1.2970086254629865 0 -30.745399600042518 -0.33352988162485236 0 -31.580662645861437 -2.000351752796537 0 -32.38882904564362 -3.70061531385487 0 -33.17590651126088 -5.432350051624901 0 -33.94704481904345 -7.194207519698906 0 -34.706753844758495 -8.985291296890642 0 -35.45908895194315 -10.805042021489308 0 -36.207813587435595 -12.653163406689934 0 -36.95654752020548 -14.529581090155554 0 -37.708908098531886 -16.434430121458895 0 -38.468651345391805 -18.368069902041533 0 -39.23981969924936 -20.331128133779803 0 -40.026903754549956 -22.324578359536666 0 -40.83502648012013 -24.349859635110448 0 -41.67016007135776 -26.40905272901527 0 -42.539387623815976 -28.50513671727412 0 -43.451223469101286 -30.64236620014787 0 -44.41600514911648 -32.82683921241238 0 -45.446360979457445 -35.06738304392215 0 -46.55772589648299 -37.37699954715388 0 -47.76879090604993 -39.77534979611368 0 -49.10154841364949 -42.29327307069059 0 -50.58005471849945 -44.98148702115098 0 -52.22576510873664 -47.928277698165104 0 -54.04441675440459 -51.29737821306478 0 -55.99273245688491 -55.4138615864895 0 -57.88904890324873 -60.9877499182368 0 -58.93520091814291 -70.20792072261116 0 -18.168928620117313 6.713491473191633 0 -18.669660499117573 9.914984627364523 0 -19.23737343328922 11.619553520870864 0 -20.00930811021932 12.130146038486131 0 -20.937891414987117 11.878338912213938 0 -21.943959866755772 11.157283961966524 0 -22.967726577452982 10.143106012405022 0 -23.97408362632726 8.938928736988265 0 -24.94604309772025 7.605563369920537 0 -25.877678097880686 6.179654875246313 0 -26.76910432219999 4.683903875116043 0 -27.62340795359003 3.132773254244163 0 -28.444916311237165 1.5357090803411952 0 -29.238286630316214 -0.10099867407016869 0 -30.008061628856247 -1.773107500420143 0 -30.75848043300868 -3.477738829500328 0 -31.493424711584833 -5.212942427378081 0 -32.216434172628986 -6.977411154366189 0 -32.93075632914008 -8.77029125655866 0 -33.639412358657346 -10.591056741654597 0 -34.34527000623975 -12.43942959597998 0 -35.05111930766921 -14.315335431034434 0 -35.759749366515116 -16.218889171853224 0 -36.47402551076529 -18.15040905767322 0 -37.196966336815464 -20.110460429944766 0 -37.93181949955723 -22.09993426817249 0 -38.68213335856186 -24.12017002891514 0 -39.451818011371536 -26.173139288301602 0 -40.24518233483795 -28.261718158553677 0 -41.066920516940236 -30.39009655212054 0 -41.921996728065366 -32.564409164462376 0 -42.815329949277235 -34.79374271584666 0 -43.75109450752208 -37.091809416808246 0 -44.73129551971049 -39.479844879270395 0 -45.753009832493646 -41.99182540766252 0 -46.80327149843352 -44.68417097065483 0 -47.85013601969484 -47.65419367497783 0 -48.82875971689687 -51.07543221576969 0 -49.62606698045221 -55.26429666865119 0 -50.10123996244891 -60.78661531551629 0 -50.67887281737629 -67.94940443384047 0 -20.222338786602347 8.747119222538782 0 -20.53465155604771 10.524919909027318 0 -20.749090572447848 11.693765403022606 0 -21.053720040262373 12.087185856868102 0 -21.501131094635344 11.862055345081185 0 -22.07296205573579 11.199521292793635 0 -22.730954155458708 10.238317537257512 0 -23.43954320633668 9.073046676456084 0 -24.172342358156982 7.765555994756073 0 -24.91201243573334 6.3557743294639115 0 -25.648192187861046 4.869518318575288 0 -26.375333899775278 3.32361539796421 0 -27.090996199131556 1.7291468521687743 0 -27.79464630742529 0.09348022479216145 0 -28.48687250445023 -1.5784517011602492 0 -29.16888854854702 -3.283336233873077 0 -29.842233323740103 -5.018953721732123 0 -30.50859645711749 -6.7838315966949265 0 -31.169723386564407 -8.577015481248221 0 -31.827369608789706 -10.397918841030233 0 -32.48328460295865 -12.246228109559892 0 -33.13921266874655 -14.121849825310472 0 -33.79690184105711 -16.02489266796929 0 -34.45811394002609 -17.95568195430073 0 -35.12462908746155 -19.914808248656485 0 -35.79823671368566 -21.90321618493013 0 -36.48070186161946 -23.92234543428164 0 -37.17368967669986 -25.97434450546933 0 -37.87862093069782 -28.062392254784797 0 -38.59641498292927 -30.191186047119317 0 -39.32705043978448 -32.367697380952215 0 -40.06883409124488 -34.60236951219206 0 -40.81721390847833 -36.911061059914125 0 -41.56291307777097 -39.31826132660813 0 -42.289156260588165 -41.86245760740916 0 -42.968010131916984 -44.605000361358705 0 -43.55702082859258 -47.64399568526827 0 -44.00147867489066 -51.13249879343761 0 -44.26205856976102 -55.28433080366056 0 -44.43791701105937 -60.26086200050126 0 -44.88972940537967 -65.87070879782416 0 -21.01569699863381 10.410183002614048 0 -21.281042924155752 11.217911260511896 0 -21.402734342803225 11.857358886994614 0 -21.52348076659126 12.044575542534492 0 -21.72439168548251 11.777623288624918 0 -22.02848380304213 11.140401147040352 0 -22.427297818763595 10.223945072303604 0 -22.900860045941318 9.102830731674716 0 -23.42820131805036 7.832188053102893 0 -23.991613722306276 6.450920957348874 0 -24.577666594749168 4.985890320710208 0 -25.17684176515874 3.4554664155652373 0 -25.78273851921354 1.8721710818215576 0 -26.391265689005085 0.24453366265040477 0 -26.999968487957997 -1.4216384909257116 0 -27.60751691968135 -3.1223989165655137 0 -28.213336600099872 -4.855079592893272 0 -28.817350698637583 -6.6178968207857345 0 -29.41980299988062 -8.409685331143912 0 -30.02113746598591 -10.22972155544258 0 -30.621915280062748 -12.07761125172593 0 -31.222754813389358 -13.953226386342537 0 -31.824282954181566 -15.856683058759808 0 -32.42708777116968 -17.7883576103133 0 -33.03166260256843 -19.74894289477717 0 -33.63833030224008 -21.739551949338097 0 -34.24713333060887 -23.761883063126113 0 -34.857670289729256 -25.818469961056685 0 -35.468851964696164 -27.913055691352387 0 -36.0785398635727 -30.051152147571834 0 -36.68301895216741 -32.24088374820352 0 -37.27624929532845 -34.494269378794904 0 -37.84885555853455 -36.82917415537991 0 -38.386894385679355 -39.27224689744541 0 -38.87070207023254 -41.863167611738206 0 -39.27484056834623 -44.660156341861864 0 -39.57192770132163 -47.74494903081413 0 -39.74701576341954 -51.21938183007447 0 -39.834426460329155 -55.16927743841793 0 -39.963176374558536 -59.569650146312384 0 -40.33802641945878 -64.14963520778575 0 -21.092414778911486 11.7818351509188 0 -21.336345475861787 11.932697914436371 0 -21.442605828002183 12.114456124873206 0 -21.50166368001763 12.060763016650547 0 -21.58783003152431 11.698478584304144 0 -21.740292255880384 11.045500285298717 0 -21.970581994204498 10.15004889255525 0 -22.274370000629034 9.06299927252244 0 -22.640423124082417 7.827836265321257 0 -23.055901135843985 6.478514911085244 0 -23.508956417732048 5.040336623903 0 -23.989718070290536 3.53166423765121 0 -24.490437602698403 1.9656174893254996 0 -25.00526391592317 0.35147637479275406 0 -25.52989757157157 -1.3042438310642435 0 -26.06124311730029 -2.9970011052671577 0 -26.59710674196104 -4.723656825450938 0 -27.135950947166265 -6.482071565512857 0 -27.676702055104734 -8.270822689723433 0 -28.21860049397355 -10.089011847042068 0 -28.761082503424415 -11.936140400028714 0 -29.303682352434006 -13.812038641790911 0 -29.845944955185033 -15.716840858359822 0 -30.38733923920709 -17.65100353573319 0 -30.92716245786614 -19.61536897163387 0 -31.46442472083071 -21.611281948805075 0 -31.997701355068653 -23.640773773800237 0 -32.524938558215105 -25.70683685919312 0 -33.04319598108025 -27.813825255620085 0 -33.548310511495856 -29.96803311191454 0 -34.034473722766094 -32.17852369029674 0 -34.49374264614685 -34.458301410787485 0 -34.915574170136516 -36.825919864371095 0 -35.28663661938147 -39.30754453775648 0 -35.59149761528759 -41.93919398063166 0 -35.815444128167044 -44.76801849017872 0 -35.95168346894918 -47.84934905008008 0 -36.015532965185606 -51.232285406774565 0 -36.06248113811394 -54.92501767992409 0 -36.19199938643331 -58.84033702335316 0 -36.50959472484425 -62.738719581809356 0 -20.713707692590063 12.928267209074384 0 -20.938797010686567 12.625532617196827 0 -21.047741211627105 12.434784789316579 0 -21.09293373077321 12.143159236627406 0 -21.131599310127086 11.65635926707323 0 -21.204019199174223 10.954680857235854 0 -21.33110586571992 10.05449447228541 0 -21.519222075638364 8.984995516701526 0 -21.765924671926054 7.776572300112295 0 -22.06442355618801 6.455966357985105 0 -22.406444845789306 5.044885420975323 0 -22.783826816164424 3.5601620927182096 0 -23.18927472536045 2.01448086907386 0 -23.6166188021835 0.41721757049406605 0 -24.060808532526504 -1.2247964109542082 0 -24.517785102804517 -2.906644473018247 0 -24.984311009577432 -4.624833374697864 0 -25.4577966580852 -6.376922994538607 0 -25.936141035094476 -8.161255633118998 0 -26.417591152800814 -9.976765191039073 0 -26.900618624139934 -11.822850779549421 0 -27.383808696481058 -13.699303983337595 0 -27.865755693204072 -15.606283491851347 0 -28.34495816735441 -17.54433510801723 0 -28.819706705419833 -19.514459447168623 0 -29.287957124820753 -21.518234278784394 0 -29.747182026067687 -23.558003777248878 0 -30.194195033356586 -25.63715314405452 0 -30.62494621609624 -27.76049388172474 0 -31.034297395357616 -29.934790872782102 0 -31.415808525123417 -32.1694625205695 0 -31.76161231225283 -34.47746714572457 0 -32.062542205586894 -36.87632374921218 0 -32.30883407253428 -39.38904162180318 0 -32.49196025390598 -42.04433528611482 0 -32.608409795803055 -44.874715568903625 0 -32.66611145297125 -47.909864321548085 0 -32.692517944224555 -51.162079709629026 0 -32.739116928782515 -54.60271622447355 0 -32.87278435393213 -58.134211072273686 0 -33.145529714503354 -61.56845038561369 0 -20.0215884633454 13.899577374841178 0 -20.227121295610704 13.273688345523116 0 -20.339232929958335 12.786943840117893 0 -20.386441643028107 12.279084014582564 0 -20.409284214659735 11.65829116745629 0 -20.442601656927103 10.88708992693116 0 -20.50956455694582 9.961065893751545 0 -20.62218627087676 8.8922906197077 0 -20.784172598687043 7.699021285149103 0 -20.99395402641247 6.400164832226305 0 -21.24709243646356 5.012723722420819 0 -21.537925092653772 3.550903406516803 0 -21.860568050262522 2.0260546389531915 0 -22.209460279909628 0.44698037914291067 0 -22.579609603104995 -1.1796401119731206 0 -22.96665996206617 -2.848829323895399 0 -23.366860027123263 -4.55694210207271 0 -23.776982714606433 -6.301364516890445 0 -24.19422411927571 -8.080280825133983 0 -24.616096741107047 -9.89250233537521 0 -25.04032351607857 -11.737350897459626 0 -25.464734243429227 -13.614590977311332 0 -25.88716326091702 -15.524406569124368 0 -26.305345855390524 -17.467421959344247 0 -26.716810512024153 -19.444768360964368 0 -27.11876467427349 -21.45820157216301 0 -27.507973590266822 -23.51027888563932 0 -27.880635996817666 -25.604605922394008 0 -28.23226860792777 -27.746164444048727 0 -28.55762664434291 -29.941727201708087 0 -28.8507146560401 -32.20034849141759 0 -29.104986931604092 -34.53387545946706 0 -29.313905360090317 -36.95733035518934 0 -29.472109940230794 -39.48882936168358 0 -29.57752035470549 -42.14839041494181 0 -29.634582305309454 -44.95456939752388 0 -29.658280239710624 -47.91762645713213 0 -29.67715675135962 -51.02848734770803 0 -29.731847039438588 -54.244636196374394 0 -29.86511609384887 -57.476830271543484 0 -30.101602237057318 -60.58291982931643 0 -19.100686351943455 14.731740676114033 0 -19.28639688563932 13.86773065930216 0 -19.398120571911583 13.147022432865462 0 -19.45048687900919 12.451069090643877 0 -19.47093792162373 11.699380463394974 0 -19.487157934310382 10.84859008532052 0 -19.52078778243286 9.882231296457956 0 -19.58583889101002 8.800165409898904 0 -19.689546786444094 7.610652097716764 0 -19.834073589069504 6.325273247365125 0 -20.018220159179204 4.956043870909742 0 -20.238812540050752 3.51396497965184 0 -20.49169533404024 2.008438427610416 0 -20.772380120189183 0.44715381728888315 0 -21.076430975160175 -1.1637927815607445 0 -21.399666231413555 -2.8196867335209745 0 -21.738239743905684 -4.516964048540016 0 -22.08864734532554 -6.2529990455243505 0 -22.447689200826066 -8.025926736089005 0 -22.81240749245698 -9.834505395200845 0 -23.180010983787263 -11.678019838456633 0 -23.54779284662991 -13.556224266315196 0 -23.913045005259317 -15.469323656979046 0 -24.27297068831551 -17.41799371435714 0 -24.62459664471861 -19.403440752556808 0 -24.964687635013835 -21.427504155836964 0 -25.289668750318597 -23.492804571345964 0 -25.595566651549248 -25.60293968102718 0 -25.877990274289687 -27.762724216416263 0 -26.132186695583155 -29.978458082703483 0 -26.35323052673491 -32.25817957478275 0 -26.536435610715703 -34.61180956186419 0 -26.678110174167685 -37.05100414674468 0 -26.776789147188275 -39.58839883175211 0 -26.83501525605227 -42.23576513499925 0 -26.861503322490588 -45.000503621438114 0 -26.87301348879339 -47.88006551988087 0 -26.894562215607586 -50.85454605688257 0 -26.95615078393561 -53.87882786840866 0 -27.084624606095133 -56.876928748026394 0 -27.290945888634 -59.7421547838412 0 -18.005439683056 15.450174421983773 0 -18.17176467244047 14.405190961424221 0 -18.27955498908763 13.49883468906862 0 -18.33573253873574 12.643022923363104 0 -18.358406846662568 11.77032126873536 0 -18.36856582671224 10.837736110012443 0 -18.384755233238714 9.82276559309949 0 -18.420776675641747 8.717271667029348 0 -18.4853918670179 7.521922966667428 0 -18.583036015302046 6.242070135998398 0 -18.714867777017112 4.885030947372748 0 -18.879792486574917 3.4584691877078835 0 -19.075305024066733 1.969524784167034 0 -19.29811646293596 0.424418111380846 0 -19.544584080915318 -1.1716683379619868 0 -19.810983847369656 -2.814560129844269 0 -20.093666040040418 -4.500992888232026 0 -20.389128705919312 -6.228493088935796 0 -20.69403575800147 -7.995263776478623 0 -21.005199110199428 -9.800088853075216 0 -21.31953832651647 -11.642262555187054 0 -21.6340269763264 -13.521547091701839 0 -21.945632140136205 -15.43815978101083 0 -22.251252157184236 -17.392790445110123 0 -22.547657695123256 -19.386649583257054 0 -22.83144265748681 -21.42154727953244 0 -23.098994622753988 -23.50000105208359 0 -23.34649991136839 -25.625366660983097 0 -23.570006569163816 -27.801977261491125 0 -23.76557984279178 -30.035260176340234 0 -23.929598269296957 -32.33177277867189 0 -24.05925040017312 -34.69905502092681 0 -24.15329187762554 -37.14513447851938 0 -24.21308795953309 -39.67745007437193 0 -24.243862094909545 -42.30091799467697 0 -24.255862904716892 -45.014919034188026 0 -24.264866265549948 -47.809229300982985 0 -24.291174318742225 -50.65938559781978 0 -24.356294709809827 -53.52259347470191 0 -24.477001492725318 -56.335861287312525 0 -24.65754396266763 -59.018383795587816 0 -16.773221893463855 16.07288342597496 0 -16.92098474113608 14.886820706490361 0 -17.022212366498998 13.832062147105797 0 -17.07970770916452 12.842039061162266 0 -17.105254271820122 11.8611849476889 0 -17.114340620290555 10.849700261288941 0 -17.122089547461858 9.782805285649049 0 -17.14096280248838 8.647548805445725 0 -17.179924633965705 7.439196076597569 0 -17.244521224286817 6.158139480850245 0 -17.337410870279854 4.8076027429128425 0 -17.459035714614924 3.392089531561394 0 -17.60826377114757 1.9164166407818888 0 -17.782924991372504 0.38516195418595045 0 -17.980221090062535 -1.197614302428131 0 -18.19701723913443 -2.8284800424818894 0 -18.430035241797487 -4.504646088916746 0 -18.675970135818886 -6.223932798918227 0 -18.931550221734767 -7.984718400019181 0 -19.19355705874713 -9.785887048833885 0 -19.45881847098576 -11.626787060437621 0 -19.724184740349052 -13.507205110572075 0 -19.986496211510687 -15.427359405429407 0 -20.24254961336943 -17.3879129958838 0 -20.489070585127422 -19.39000686169897 0 -20.722701286285773 -21.435310385185364 0 -20.94001470200454 -23.526083517802803 0 -21.13757142427834 -25.665239191543968 0 -21.312040151186352 -27.856384847076306 0 -21.460409077293555 -30.103806548812507 0 -21.58031941654683 -32.412336446703875 0 -21.67054935209172 -34.78701442105394 0 -21.73165728530592 -37.23242250339226 0 -21.76674351170015 -39.751550597858866 0 -21.782196369238434 -42.34407203633508 0 -21.788155377285808 -45.00400451473836 0 -21.798290336058948 -47.716932421167215 0 -21.82844833939052 -50.45725800955549 0 -21.893865232539707 -53.18626602806823 0 -22.00503964068673 -55.85203081900995 0 -22.1630054057477 -58.39227425228981 0 -15.43115106873903 16.612769926481484 0 -15.561292693805349 15.314634223507266 0 -15.654217362216611 14.140362011159983 0 -15.710615998133754 13.038423111690511 0 -15.738099647455803 11.96305027507009 0 -15.747925764838481 10.87855528290547 0 -15.75205285402962 9.760021246554897 0 -15.761158523271414 8.591897823540654 0 -15.783636385684169 7.365817793658504 0 -15.825323656631626 6.078425159062523 0 -15.889672432647835 4.729568065208001 0 -15.97813455442608 3.320945422072029 0 -16.0906074223248 1.8551678685670867 0 -16.22585412780233 0.33514788543546764 0 -16.381857551141803 -1.2362702428286139 0 -16.556096533308995 -2.856516788882661 0 -16.745747651919874 -4.523397820523795 0 -16.947823162659514 -6.235133460586457 0 -17.159257849076976 -7.9903620791322645 0 -17.376957241230432 -9.788129473521062 0 -17.59781839529706 -11.627875109753504 0 -17.818733029851188 -13.509422675212946 0 -18.036581763866664 -15.432978815898009 0 -18.24822775240188 -17.399141343620187 0 -18.450518307125172 -19.408915780384028 0 -18.64030418486276 -21.46373622385741 0 -18.814488101041594 -23.565482465539905 0 -18.97011646280153 -25.716479273183438 0 -19.104530714226062 -27.919454933966517 0 -19.215595695949496 -30.17742396291208 0 -19.302019457495305 -32.49344363921294 0 -19.363767735037 -34.870178224113644 0 -19.402550979675986 -37.30919475084903 0 -19.422316976418546 -39.80992194087675 0 -19.429617930682248 -42.368245168155106 0 -19.433651115384276 -44.97479971873649 0 -19.44572946679936 -47.61316351626174 0 -19.477969484129346 -50.258318553021645 0 -19.54112989401629 -52.87590508994443 0 -19.64180789766296 -55.42288158643809 0 -19.77956893554403 -57.8501769254617 0 -13.999850435554094 