# vtk DataFile Version 4.2
Quad2D4N
ASCII

DATASET UNSTRUCTURED_GRID
POINTS 1681 double
0 0 0 25 0 0 50 0 0 75 0 0 100 0 0 125 0 0 150 0 0 175 0 0 200 0 0 225 0 0 250 0 0 275 0 0 300 0 0 325 0 0 350 0 0 375 0 0 400 0 0 425 0 0 450 0 0 475 0 0 500 0 0 525 0 0 550 0 0 575 0 0 600 0 0 625 0 0 650 0 0 675 0 0 700 0 0 725 0 0 750 0 0 775 0 0 800 0 0 825 0 0 850 0 0 875 0 0 900 0 0 925 0 0 950 0 0 975 0 0 1000 0 0 0 25 0 25 25 0 50 25 0 75 25 0 100 25 0 125 25 0 150 25 0 175 25 0 200 25 0 225 25 0 250 25 0 275 25 0 300 25 0 325 25 0 350 25 0 375 25 0 400 25 0 425 25 0 450 25 0 475 25 0 500 25 0 525 25 0 550 25 0 575 25 0 600 25 0 625 25 0 650 25 0 675 25 0 700 25 0 725 25 0 750 25 0 775 25 0 800 25 0 825 25 0 850 25 0 875 25 0 900 25 0 925 25 0 950 25 0 975 25 0 1000 25 0 0 50 0 25 50 0 50 50 0 75 50 0 100 50 0 125 50 0 150 50 0 175 50 0 200 50 0 225 50 0 250 50 0 275 50 0 300 50 0 325 50 0 350 50 0 375 50 0 400 50 0 425 50 0 450 50 0 475 50 0 500 50 0 525 50 0 550 50 0 575 50 0 600 50 0 625 50 0 650 50 0 675 50 0 700 50 0 725 50 0 750 50 0 775 50 0 800 50 0 825 50 0 850 50 0 875 50 0 900 50 0 925 50 0 950 50 0 975 50 0 1000 50 0 0 75 0 25 75 0 50 75 0 75 75 0 100 75 0 125 75 0 150 75 0 175 75 0 200 75 0 225 75 0 250 75 0 275 75 0 300 75 0 325 75 0 350 75 0 375 75 0 400 75 0 425 75 0 450 75 0 475 75 0 500 75 0 525 75 0 550 75 0 575 75 0 600 75 0 625 75 0 650 75 0 675 75 0 700 75 0 725 75 0 750 75 0 775 75 0 800 75 0 825 75 0 850 75 0 875 75 0 900 75 0 925 75 0 950 75 0 975 75 0 1000 75 0 0 100 0 25 100 0 50 100 0 75 100 0 100 100 0 125 100 0 150 100 0 175 100 0 200 100 0 225 100 0 250 100 0 275 100 0 300 100 0 325 100 0 350 100 0 375 100 0 400 100 0 425 100 0 450 100 0 475 100 0 500 100 0 525 100 0 550 100 0 575 100 0 600 100 0 625 100 0 650 100 0 675 100 0 700 100 0 725 100 0 750 100 0 775 100 0 800 100 0 825 100 0 850 100 0 875 100 0 900 100 0 925 100 0 950 100 0 975 100 0 1000 100 0 0 125 0 25 125 0 50 125 0 75 125 0 100 125 0 125 125 0 150 125 0 175 125 0 200 125 0 225 125 0 250 125 0 275 125 0 300 125 0 325 125 0 350 125 0 375 125 0 400 125 0 425 125 0 450 125 0 475 125 0 500 125 0 525 125 0 550 125 0 575 125 0 600 125 0 625 125 0 650 125 0 675 125 0 700 125 0 725 125 0 750 125 0 775 125 0 800 125 0 825 125 0 850 125 0 875 125 0 900 125 0 925 125 0 950 125 0 975 125 0 1000 125 0 0 150 0 25 150 0 50 150 0 75 150 0 100 150 0 125 150 0 150 150 0 175 150 0 200 150 0 225 150 0 250 150 0 275 150 0 300 150 0 325 150 0 350 150 0 375 150 0 400 150 0 425 150 0 450 150 0 475 150 0 500 150 0 525 150 0 550 150 0 575 150 0 600 150 0 625 150 0 650 150 0 675 150 0 700 150 0 725 150 0 750 150 0 775 150 0 800 150 0 825 150 0 850 150 0 875 150 0 900 150 0 925 150 0 950 150 0 975 150 0 1000 150 0 0 175 0 25 175 0 50 175 0 75 175 0 100 175 0 125 175 0 150 175 0 175 175 0 200 175 0 225 175 0 250 175 0 275 175 0 300 175 0 325 175 0 350 175 0 375 175 0 400 175 0 425 175 0 450 175 0 475 175 0 500 175 0 525 175 0 550 175 0 575 175 0 600 175 0 625 175 0 650 175 0 675 175 0 700 175 0 725 175 0 750 175 0 775 175 0 800 175 0 825 175 0 850 175 0 875 175 0 900 175 0 925 175 0 950 175 0 975 175 0 1000 175 0 0 200 0 25 200 0 50 200 0 75 200 0 100 200 0 125 200 0 150 200 0 175 200 0 200 200 0 225 200 0 250 200 0 275 200 0 300 200 0 325 200 0 350 200 0 375 200 0 400 200 0 425 200 0 450 200 0 475 200 0 500 200 0 525 200 0 550 200 0 575 200 0 600 200 0 625 200 0 650 200 0 675 200 0 700 200 0 725 200 0 750 200 0 775 200 0 800 200 0 825 200 0 850 200 0 875 200 0 900 200 0 925 200 0 950 200 0 975 200 0 1000 200 0 0 225 0 25 225 0 50 225 0 75 225 0 100 225 0 125 225 0 150 225 0 175 225 0 200 225 0 225 225 0 250 225 0 275 225 0 300 225 0 325 225 0 350 225 0 375 225 0 400 225 0 425 225 0 450 225 0 475 225 0 500 225 0 525 225 0 550 225 0 575 225 0 600 225 0 625 225 0 650 225 0 675 225 0 700 225 0 725 225 0 750 225 0 775 225 0 800 225 0 825 225 0 850 225 0 875 225 0 900 225 0 925 225 0 950 225 0 975 225 0 1000 225 0 0 250 0 25 250 0 50 250 0 75 250 0 100 250 0 125 250 0 150 250 0 175 250 0 200 250 0 225 250 0 250 250 0 275 250 0 300 250 0 325 250 0 350 250 0 375 250 0 400 250 0 425 250 0 450 250 0 475 250 0 500 250 0 525 250 0 550 250 0 575 250 0 600 250 0 625 250 0 650 250 0 675 250 0 700 250 0 725 250 0 750 250 0 775 250 0 800 250 0 825 250 0 850 250 0 875 250 0 900 250 0 925 250 0 950 250 0 975 250 0 1000 250 0 0 275 0 25 275 0 50 275 0 75 275 0 100 275 0 125 275 0 150 275 0 175 275 0 200 275 0 225 275 0 250 275 0 275 275 0 300 275 0 325 275 0 350 275 0 375 275 0 400 275 0 425 275 0 450 275 0 475 275 0 500 275 0 525 275 0 550 275 0 575 275 0 600 275 0 625 275 0 650 275 0 675 275 0 700 275 0 725 275 0 750 275 0 775 275 0 800 275 0 825 275 0 850 275 0 875 275 0 900 275 0 925 275 0 950 275 0 975 275 0 1000 275 0 0 300 0 25 300 0 50 300 0 75 300 0 100 300 0 125 300 0 150 300 0 175 300 0 200 300 0 225 300 0 250 300 0 275 300 0 300 300 0 325 300 0 350 300 0 375 300 0 400 300 0 425 300 0 450 300 0 475 300 0 500 300 0 525 300 0 550 300 0 575 300 0 600 300 0 625 300 0 650 300 0 675 300 0 700 300 0 725 300 0 750 300 0 775 300 0 800 300 0 825 300 0 850 300 0 875 300 0 900 300 0 925 300 0 950 300 0 975 300 0 1000 300 0 0 325 0 25 325 0 50 325 0 75 325 0 100 325 0 125 325 0 150 325 0 175 325 0 200 325 0 225 325 0 250 325 0 275 325 0 300 325 0 325 325 0 350 325 0 375 325 0 400 325 0 425 325 0 450 325 0 475 325 0 500 325 0 525 325 0 550 325 0 575 325 0 600 325 0 625 325 0 650 325 0 675 325 0 700 325 0 725 325 0 750 325 0 775 325 0 800 325 0 825 325 0 850 325 0 875 325 0 900 325 0 925 325 0 950 325 0 975 325 0 1000 325 0 0 350 0 25 350 0 50 350 0 75 350 0 100 350 0 125 350 0 150 350 0 175 350 0 200 350 0 225 350 0 250 350 0 275 350 0 300 350 0 325 350 0 350 350 0 375 350 0 400 350 0 425 350 0 450 350 0 475 350 0 500 350 0 525 350 0 550 350 0 575 350 0 600 350 0 625 350 0 650 350 0 675 350 0 700 350 0 725 350 0 750 350 0 775 350 0 800 350 0 825 350 0 850 350 0 875 350 0 900 350 0 925 350 0 950 350 0 975 350 0 1000 350 0 0 375 0 25 375 0 50 375 0 75 375 0 100 375 0 125 375 0 150 375 0 175 375 0 200 375 0 225 375 0 250 375 0 275 375 0 300 375 0 325 375 0 350 375 0 375 375 0 400 375 0 425 375 0 450 375 0 475 375 0 500 375 0 525 375 0 550 375 0 575 375 0 600 375 0 625 375 0 650 375 0 675 375 0 700 375 0 725 375 0 750 375 0 775 375 0 800 375 0 825 375 0 850 375 0 875 375 0 900 375 0 925 375 0 950 375 0 975 375 0 1000 375 0 0 400 0 25 400 0 50 400 0 75 400 0 100 400 0 125 400 0 150 400 0 175 400 0 200 400 0 225 400 0 250 400 0 275 400 0 300 400 0 325 400 0 350 400 0 375 400 0 400 400 0 425 400 0 450 400 0 475 400 0 500 400 0 525 400 0 550 400 0 575 400 0 600 400 0 625 400 0 650 400 0 675 400 0 700 400 0 725 400 0 750 400 0 775 400 0 800 400 0 825 400 0 850 400 0 875 400 0 900 400 0 925 400 0 950 400 0 975 400 0 1000 400 0 0 425 0 25 425 0 50 425 0 75 425 0 100 425 0 125 425 0 150 425 0 175 425 0 200 425 0 225 425 0 250 425 0 275 425 0 300 425 0 325 425 0 350 425 0 375 425 0 400 425 0 425 425 0 450 425 0 475 425 0 500 425 0 525 425 0 550 425 0 575 425 0 600 425 0 625 425 0 650 425 0 675 425 0 700 425 0 725 425 0 750 425 0 775 425 0 800 425 0 825 425 0 850 425 0 875 425 0 900 425 0 925 425 0 950 425 0 975 425 0 1000 425 0 0 450 0 25 450 0 50 450 0 75 450 0 100 450 0 125 450 0 150 450 0 175 450 0 200 450 0 225 450 0 250 450 0 275 450 0 300 450 0 325 450 0 350 450 0 375 450 0 400 450 0 425 450 0 450 450 0 475 450 0 500 450 0 525 450 0 550 450 0 575 450 0 600 450 0 625 450 0 650 450 0 675 450 0 700 450 0 725 450 0 750 450 0 775 450 0 800 450 0 825 450 0 850 450 0 875 450 0 900 450 0 925 450 0 950 450 0 975 450 0 1000 450 0 0 475 0 25 475 0 50 475 0 75 475 0 100 475 0 125 475 0 150 475 0 175 475 0 200 475 0 225 475 0 250 475 0 275 475 0 300 475 0 325 475 0 350 475 0 375 475 0 400 475 0 425 475 0 450 475 0 475 475 0 500 475 0 525 475 0 550 475 0 575 475 0 600 475 0 625 475 0 650 475 0 675 475 0 700 475 0 725 475 0 750 475 0 775 475 0 800 475 0 825 475 0 850 475 0 875 475 0 900 475 0 925 475 0 950 475 0 975 475 0 1000 475 0 0 500 0 25 500 0 50 500 0 75 500 0 100 500 0 125 500 0 150 500 0 175 500 0 200 500 0 225 500 0 250 500 0 275 500 0 300 500 0 325 500 0 350 500 0 375 500 0 400 500 0 425 500 0 450 500 0 475 500 0 500 500 0 525 500 0 550 500 0 575 500 0 600 500 0 625 500 0 650 500 0 675 500 0 700 500 0 725 500 0 750 500 0 775 500 0 800 500 0 825 500 0 850 500 0 875 500 0 900 500 0 925 500 0 950 500 0 975 500 0 1000 500 0 0 525 0 25 525 0 50 525 0 75 525 0 100 525 0 125 525 0 150 525 0 175 525 0 200 525 0 225 525 0 250 525 0 275 525 0 300 525 0 325 525 0 350 525 0 375 525 0 400 525 0 425 525 0 450 525 0 475 525 0 500 525 0 525 525 0 550 525 0 575 525 0 600 525 0 625 525 0 650 525 0 675 525 0 700 525 0 725 525 0 750 525 0 775 525 0 800 525 0 825 525 0 850 525 0 875 525 0 900 525 0 925 525 0 950 525 0 975 525 0 1000 525 0 0 550 0 25 550 0 50 550 0 75 550 0 100 550 0 125 550 0 150 550 0 175 550 0 200 550 0 225 550 0 250 550 0 275 550 0 300 550 0 325 550 0 350 550 0 375 550 0 400 550 0 425 550 0 450 550 0 475 550 0 500 550 0 525 550 0 550 550 0 575 550 0 600 550 0 625 550 0 650 550 0 675 550 0 700 550 0 725 550 0 750 550 0 775 550 0 800 550 0 825 550 0 850 550 0 875 550 0 900 550 0 925 550 0 950 550 0 975 550 0 1000 550 0 0 575 0 25 575 0 50 575 0 75 575 0 100 575 0 125 575 0 150 575 0 175 575 0 200 575 0 225 575 0 250 575 0 275 575 0 300 575 0 325 575 0 350 575 0 375 575 0 400 575 0 425 575 0 450 575 0 475 575 0 500 575 0 525 575 0 550 575 0 575 575 0 600 575 0 625 575 0 650 575 0 675 575 0 700 575 0 725 575 0 750 575 0 775 575 0 800 575 0 825 575 0 850 575 0 875 575 0 900 575 0 925 575 0 950 575 0 975 575 0 1000 575 0 0 600 0 25 600 0 50 600 0 75 600 0 100 600 0 125 600 0 150 600 0 175 600 0 200 600 0 225 600 0 250 600 0 275 600 0 300 600 0 325 600 0 350 600 0 375 600 0 400 600 0 425 600 0 450 600 0 475 600 0 500 600 0 525 600 0 550 600 0 575 600 0 600 600 0 625 600 0 650 600 0 675 600 0 700 600 0 725 600 0 750 600 0 775 600 0 800 600 0 825 600 0 850 600 0 875 600 0 900 600 0 925 600 
[...]
POINT_DATA 1681

VECTORS displacement double
0 0 0 -0.11034817630343582 0.1035104004774942 0 -0.17393183959941436 0.12264875192754168 0 -0.2140065650587346 0.12395000954838487 0 -0.24281152642060602 0.11773717143445261 0 -0.2653023253521746 0.10754517146023417 0 -0.28380393518451685 0.09486740908754855 0 -0.2995817521756564 0.0805004685146611 0 -0.31340387406992615 0.06491458609016054 0 -0.3257736656631693 0.04840713017468754 0 -0.33703976161266996 0.031174535521778568 0 -0.3474538792314506 0.013350485329062252 0 -0.35720375816877964 -0.004972215230209287 0 -0.36643316730563474 -0.023728325754919625 0 -0.37525472214957806 -0.042871678280546194 0 -0.38375848823280784 -0.062369558874245765 0 -0.3920180091830291 -0.08219888923180345 0 -0.4000947096823288 -0.10234358790263447 0 -0.40804125074246633 -0.12279273954008978 0 -0.41590420483085727 -0.14353934413974523 0 -0.4237262971937699 -0.1645795054312179 0 -0.43154838955668195 -0.18591197385912947 0 -0.4394113436450725 -0.20753799897885758 0 -0.4473578847052097 -0.22946147706078646 0 -0.4554345852045093 -0.25168940810933915 0 -0.46369410615473045 -0.2742327074711654 0 -0.47219787223796017 -0.29710745659684995 0 -0.4810194270819033 -0.32033673379060723 0 -0.49024883621875837 -0.3439532529852806 0 -0.49999871515608774 -0.3680031821453928 0 -0.5104128327748687 -0.39255176167206085 0 -0.5216789287243696 -0.4176917967385364 0 -0.5340487203176127 -0.4435569705424482 0 -0.5478708422118826 -0.4703437178373325 0 -0.5636486592030227 -0.4983494069838303 0 -0.5821502690353654 -0.5280442743305299 0 -0.6046410679669346 -0.5602249040756969 0 -0.6334460293288072 -0.5963846956811509 0 -0.6735207547881286 -0.640058583021382 0 -0.7371044180841084 -0.7015695641908188 0 -0.8474525943875442 -0.8474525943877158 0 -0.1842744665591073 0.039007532796104555 0 -0.18269912008274292 0.11138281842925576 0 -0.19896209911689483 0.1309650902513575 0 -0.2203832193533927 0.1310795543257407 0 -0.24021464101324663 0.12380420688366922 0 -0.2576501351410273 0.11274522952867168 0 -0.27297041178940473 0.09940208085463394 0 -0.2865877502316522 0.08452443857987417 0 -0.29885729630913793 0.06854325115220462 0 -0.31005974817482373 0.0517267615493295 0 -0.320413672254985 0.03425060165935246 0 -0.3300901067291323 0.01623351590674152 0 -0.33922437017392876 -0.002242568250891929 0 -0.3479249028302887 -0.021120448906652906 0 -0.3562797975099994 -0.040359969811129555 0 -0.36436166864198877 -0.0599329437823115 0 -0.37223135370077615 -0.07981969902924499 0 -0.37994079999582103 -0.10000668779326023 0 -0.38753538572466373 -0.12048482354979428 0 -0.395055852865987 -0.14124834257903993 0 -0.40253998233407756 -0.16229406395009788 0 -0.41002411180216813 -0.18362097229842417 0 -0.41754457894349123 -0.20523008298856227 0 -0.4251391646723335 -0.22712457695141217 0 -0.4328486109673783 -0.24931021790678068 0 -0.4407182960261656 -0.2717960923792313 0 -0.44880016715815463 -0.2945957481274333 0 -0.4571550618378654 -0.3177288569423405 0 -0.46585559449422526 -0.34122360600596313 0 -0.47498985793902176 -0.36512015156771355 0 -0.48466629241316916 -0.3894756955344869 0 -0.4950202164933305 -0.4143721653638944 0 -0.5062226683590162 -0.4399283054804042 0 -0.5184922144365018 -0.4663197477721195 0 -0.5321095528787494 -0.49381473521674474 0 -0.5474298295271273 -0.522844216262092 0 -0.5648653236549083 -0.5541578686264801 0 -0.584696745314762 -0.5892551509037951 0 -0.6061178655512595 -0.6317422446975658 0 -0.6223808445854102 -0.6936971462390576 0 -0.6208054981090467 -0.8084450615915999 0 -0.22339026733609096 0.07520233224196214 0 -0.2290259016117244 0.10823150484329745 0 -0.22901896387959486 0.1296112571833216 0 -0.2348616267956147 0.1325045824046657 0 -0.24449239072003803 0.12640986247151315 0 -0.2553400995235183 0.11573967169055951 0 -0.2662519523378412 0.10245240381208727 0 -0.27678734759640516 0.08750173814532 0 -0.28681401191883094 0.07140406143020189 0 -0.2963251094741542 0.054463624561343314 0 -0.3053624269966057 0.036870935578189525 0 -0.313983814289786 0.018750344180033622 0 -0.3222494465716963 0.00018526405718526993 0 -0.3302162635182519 -0.01876741183801013 0 -0.3379360459439453 -0.03806855015067557 0 -0.345455124061961 -0.057691188439804794 0 -0.3528148077130013 -0.07761683800335062 0 -0.3600521199512153 -0.09783297849178946 0 -0.36720064232433774 -0.11833134388211457 0 -0.3742913876141818 -0.1391067628482801 0 -0.38135366747438515 -0.16015641119236146 0 -0.3884159473345888 -0.18147939256766424 0 -0.3955066926244327 -0.20307660332088268 0 -0.4026552149975549 -0.22495086764994138 0 -0.4098925272357686 -0.24710735688088642 0 -0.41725221088680864 -0.26955433703672455 0 -0.4247712890048245 -0.29230432846697924 0 -0.4324910714305178 -0.31537581987369756 0 -0.44045788837707345 -0.338795773697886 0 -0.4487235206589835 -0.36260332329442163 0 -0.4573449079521637 -0.38685536161565004 0 -0.466382225474615 -0.41163530235188056 0 -0.47589332302993803 -0.43706749520240684 0 -0.4859199873523637 -0.46334244820667364 0 -0.4964553826109278 -0.4907644122592913 0 -0.5073672354252506 -0.5198497741002042 0 -0.5182149442287307 -0.5515522130386361 0 -0.5278457081531533 -0.58783012282487 0 -0.5336883710691723 -0.6330960777656017 0 -0.5336814333370427 -0.6968484598250139 0 -0.539317067612677 -0.7722502621457361 0 -0.24049977966974065 0.10060620683781474 0 -0.24418887598998257 0.11442328313330973 0 -0.2448721417169574 0.1268810827506565 0 -0.24557060369833314 0.13048919355522237 0 -0.248951744842097 0.125936048598895 0 -0.2545082235513614 0.11635947482797582 0 -0.26130409651875625 0.10372207553632362 0 -0.26868956867001664 0.08913658132958212 0 -0.2762875137014556 0.0732365959827756 0 -0.2838959660331064 0.05639786665911323 0 -0.2914142607318988 0.03885250097393588 0 -0.2987984069019636 0.020748912963413066 0 -0.306035585411621 0.0021844898737789584 0 -0.31312979474154984 -0.016775723065533682 0 -0.32009379693058343 -0.03608783138217843 0 -0.3269446218854731 -0.055722105028577225 0 -0.33370109972894746 -0.07565846572113392 0 -0.34038256242087894 -0.09588349892685727 0 -0.34700822612719306 -0.11638845144147018 0 -0.3535969713345577 -0.1371678996766067 0 -0.3601673526146931 -0.1582189023411142 0 -0.36673773389482817 -0.1795405293959908 0 -0.37332647910219274 -0.20113371088023826 0 -0.37995214280850653 -0.22300138808500922 0 -0.3866336055004379 -0.24514898459866982 0 -0.39339008334391246 -0.2675852536254969 0 -0.40024090829880216 -0.2903236096984821 0 -0.40720491048783564 -0.3133841311012211 0 -0.4142991198177644 -0.3367965478812923 0 -0.42153629832742173 -0.36060475451104235 0 -0.4289204444974863 -0.38487379621990386 0 -0.4364387391962781 -0.4097010602541109 0 -0.4440471915279288 -0.4352349606498332 0 -0.45164513655936744 -0.46170760502241176 0 -0.4590306087106275 -0.489494740535055 0 -0.4658264816780224 -0.5192299709627878 0 -0.4713829603872864 -0.5520260269112541 0 -0.47476410153104975 -0.5898455116743133 0 -0.47546256351242505 -0.6358262521982657 0 -0.47614582923939996 -0.6906566815349992 0 -0.4798349255596425 -0.7468463875498798 0 -0.24456882657441334 0.11897180862603149 0 -0.2480139556208275 0.12261434624836595 0 -0.2489731268250671 0.12753218461891416 0 -0.24905706297996275 0.12851402531381537 0 -0.2499327016151999 0.12419570164187518 0 -0.2523469877146689 0.11543529839128254 0 -0.2561307112125286 0.10355483809913814 0 -0.26089269242623353 0.08954043725616902 0 -0.26628660724510217 0.0740443210928887 0 -0.2720624549119248 0.057484899054751536 0 -0.2780540579903026 0.04013168185062844 0 -0.28415579036432936 0.02216054379481785 0 -0.29030287219403045 0.003687877002442213 0 -0.29645726554641955 -0.01520840992680183 0 -0.30259818365833585 -0.03447578194537319 0 -0.30871586671757617 -0.054078717762250685 0 -0.31480754547746964 -0.07399326475616544 0 -0.32087483685752954 -0.09420343246220872 0 -0.32692206611562835 -0.11469878571635121 0 -0.33295518147213166 -0.13547285362525852 0 -0.3389810377550008 -0.15652212334779064 0 -0.3450068940378699 -0.1778454833446426 0 -0.3510400093943729 -0.1994440451551194 0 -0.3570872386524713 -0.2213213216203608 0 -0.3631545300325314 -0.24348378363370124 0 -0.3692462087924251 -0.2659418663591702 0 -0.3753638918516655 -0.2887115602616768 0 -0.3815048099635819 -0.31181681796248933 0 -0.3876592033159708 -0.33529316075262916 0 -0.3938062851456715 -0.35919312367963774 0 -0.39990801751969796 -0.38359461534321176 0 -0.40589962059807544 -0.40861402785847284 0 -0.41167546826489787 -0.4344272355397202 0 -0.41706938308376634 -0.46130374909582483 0 -0.42183136429747076 -0.4896619779722404 0 -0.42561508779533014 -0.5201541473994808 0 -0.4280293738947988 -0.5537663738682739 0 -0.42890501253003566 -0.5918206799157197 0 -0.428988948684931 -0.635175150330007 0 -0.4299481198891707 -0.682465618419941 0 -0.43339324893558534 -0.7284807857616604 0 -0.24212792554925044 0.13331195539745164 0 -0.2450935593672957 0.1308030752927967 0 -0.24635980747459404 0.13012918798025655 0 -0.24652731666224545 0.12794478302348794 0 -0.24668390083585262 0.12260513283030396 0 -0.24758875614489317 0.11396062072504225 0 -0.24951121081556335 0.10255771747223667 0 -0.25238060341723106 0.08906155684388452 0 -0.25600953903851736 0.07401650002618247 0 -0.2602050060959152 0.05781970475474833 0 -0.2648065184589895 0.040748478922262944 0 -0.2696920245192235 0.022993633515067956 0 -0.2747727777014514 0.0046860236489548596 0 -0.27998587492896904 -0.014084557984747993 0 -0.2852874628663045 -0.03325644577355183 0 -0.2906473505001766 -0.05278733598999278 0 -0.29604497761596704 -0.07264834441160503 0 -0.30146647233279805 -0.09281996694230507 0 -0.30690251594936563 -0.11328933981123875 0 -0.3123467765838258 -0.13404841097365214 0 -0.3177947228953087 -0.15509277751613287 0 -0.32324266920679134 -0.1764210406930363 0 -0.3286869298412514 -0.19803459925000697 0 -0.3341229734578188 -0.2199378561004573 0 -0.3395444681746497 -0.24213886328914078 0 -0.3449420952904403 -0.26465048458691237 0 -0.3503019829243125 -0.28749222408985553 0 -0.35560357086164784 -0.31069296602043556 0 -0.36081666808916524 -0.3342950141061166 0 -0.3658974212713928 -0.3583600339593879 0 -0.3707829273316265 -0.38297781827157734 0 -0.37538443969470053 -0.4082792221584761 0 -0.379579906752098 -0.43445505660642647 0 -0.38320884237338393 -0.4617826295081094 0 -0.38607823497505145 -0.4906590985991418 0 -0.38800068964572115 -0.5216288250657212 0 -0.3889055449547614 -0.555356942679845 0 -0.38906212912836813 -0.5923899222060468 0 -0.3892296383160197 -0.6325781469686633 0 -0.3904958864233183 -0.6742768893755087 0 -0.3934615202413641 -0.7141406389902382 0 -0.23540125494669956 0.1449924882958034 0 -0.23799557867581872 0.1384003419052835 0 -0.2393557628565766 0.13365231901445726 0 -0.23973734866120264 0.1285574193080967 0 -0.2397664427993133 0.12171113502955704 0 -0.2400494431778999 0.11259157649652068 0 -0.24094915121721341 0.10127447947556796 0 -0.24258562185944493 0.08809240590470391 0 -0.24492416998603714 0.0734186625546036 0 -0.24786412314992468 0.05757494781392694 0 -0.25129062263974966 0.04081150554966403 0 -0.25509813027122746 0.023313840283570735 0 -0.2591982522910823 0.005216210492226023 0 -0.26352031221004757 -0.013385454831356506 0 -0.2680091226022685 -0.032423161795520954 0 -0.27262202627244503 -0.05184904809091981 0 -0.2773260576541216 -0.07162971119601602 0 -0.2820955044099783 -0.09174216128823104 0 -0.28690990234170755 -0.11217098143217771 0 -0.2917524010478824 -0.13290638736362603 0 -0.29660840803561644 -0.15394297464840198 0 -0.3014644150233505 -0.17527901708301025 0 -0.3063069137295253 -0.1969162408709459 0 -0.3111213116612545 -0.2188600504463832 0 -0.3158907584171112 -0.2411202300735518 0 -0.32059478979878797 -0.2637121966878394 0 -0.3252076934689644 -0.28665894011182474 0 -0.3296965038611852 -0.30999386286704433 0 -0.3340185637801501 -0.3337648272628457 0 -0.33811868580000454 -0.3580398271908851 0 -0.3419261934314823 -0.3829147916441763 0 -0.34535269292130677 -0.4085239790992976 0 -0.348292646085194 -0.4350528940780054 0 -0.350631194211786 -0.4627517804472899 0 -0.3522676648540171 -0.49194233659581044 0 -0.35316737289333033 -0.5229978692942425 0 -0.3534503732719165 -0.5562509404805915 0 -0.3534794674100271 -0.5917772859214372 0 -0.35386105321465305 -0.6290550159344614 0 -0.3552212373954112 -0.6666796227630204 0 -0.3578155611245307 -0.7024601060918847 0 -0.22570069762310457 0.1547825044341688 0 -0.22797284005455062 0.14528510233234954 0 -0.22933081436385291 0.13750440385127466 0 -0.22986952865702404 0.12995237791799488 0 -0.22995735976876056 0.12151865355262205 0 -0.2300245470926331 0.11160695923530306 0 -0.2304080627591641 0.10005196961282578 0 -0.23129652030099643 0.08694932481339063 0 -0.23275131900121654 0.07250474943580565 0 -0.23475257180367887 0.05694178558778002 0 -0.23724030120441444 0.04045939890151606 0 -0.24014102818017594 0.02321927464666924 0 -0.24338204065708402 0.005346543682020021 0 -0.24689775820023876 -0.013064690906461918 0 -0.25063171540339746 -0.031944971022393874 0 -0.25453637409146956 -0.05124375727164825 0 -0.2585719962899225 -0.07092478577763411 0 -0.2627052066629813 -0.0909625019809103 0 -0.26690753457862154 -0.11133942636010201 0 -0.271154046985569 -0.13204428871308627 0 -0.27542209317592437 -0.1530707936082278 0 -0.2796901393662796 -0.1744169184324704 0 -0.28393665177322724 -0.1960846857988701 0 -0.2881389796888674 -0.2180803911390624 0 -0.29227219006192623 -0.24041530465516991 0 -0.2963078122603792 -0.2631069058685679 0 -0.3002124709484513 -0.28618074933869764 0 -0.3039464281516101 -0.3096730989421497 0 -0.30746214569476454 -0.333634494073052 0 -0.31070315817167227 -0.3581343928277868 0 -0.31360388514743337 -0.38326689829232435 0 -0.3160916145481686 -0.4091571413254445 0 -0.3180928673506305 -0.4359668071968033 0 -0.3195476660508504 -0.4638948615386031 0 -0.3204361235926827 -0.4931648464585525 0 -0.3208196392592134 -0.5239824865554599 0 -0.32088682658308554 -0.5564434219575259 0 -0.320974657694822 -0.5903823273115382 0 -0.32151337198799307 -0.6252029310976431 0 -0.3228713462972955 -0.659794862335953 0 -0.32514348872874205 -0.6926700899535178 0 -0.21379309344637146 0.16313209639231444 0 -0.2157900136044667 0.15146631183651948 0 -0.2170897175429559 0.14137113784907743 0 -0.21771985904093658 0.1317951978087057 0 -0.21789832721326532 0.12187567548144002 0 -0.21792235419130676 0.11105115941766756 0 -0.21806580501892356 0.09905475095920144 0 -0.21852324764595818 0.08583647204538526 0 -0.2194000676028305 0.07147188841670822 0 -0.2207297400146113 0.05609019886064565 0 -0.22249847963760927 0.03983012845744455 0 -0.22466658812821685 0.022818066390804723 0 -0.22718320844701376 0.005160015787947282 0 -0.2299951722386876 -0.013059327840998263 0 -0.2330516522784337 -0.03177439870169994 0 -0.23630618097388273 -0.050935609238142734 0 -0.23971714794823218 -0.07050622225151496 0 -0.2432474817197052 -0.09045965140496515 0 -0.24686392845028146 -0.11077731057942025 0 -0.25053615342104807 -0.13144701089160246 0 -0.25423577831623234 -0.15246186317135918 0 -0.2579354032114166 -0.17381964061098654 0 -0.2616076281821832 -0.19552257001818824 0 -0.26522407491275946 -0.21757754056311715 0 -0.26875440868423267 -0.2399967411290507 0 -0.2721653756585822 -0.2627987578350625 0 -0.27541990435403096 -0.28601017701800374 0 -0.27847638439377703 -0.30966773587668606 0 -0.28128834818545073 -0.3338210219671247 0 -0.2838049685042474 -0.35853560108365157 0 -0.2859730769948548 -0.3838961687363959 0 -0.28774181661785236 -0.41000872805257893 0 -0.28907148902963276 -0.43699966821590075 0 -0.2899483089865048 -0.4650077143066082 0 -0.2904057516135391 -0.4941620651121766 0 -0.29054920244115573 -0.5245382863730951 0 -0.290573229419197 -0.5560864000287075 0 -0.29075169759152564 -0.5885395074208265 0 -0.29138183908950627 -0.6213361970998396 0 -0.29268154302799554 -0.6536136528317819 0 -0.2946784631860911 -0.6843204979953708 0 -0.2001858276969339 0.17032780824599353 0 -0.20194213268641498 0.15698714712672202 0 -0.20315511311831785 0.14508556097073277 0 -0.20382304838906093 0.1338516185986479 0 -0.2040772219478118 0.1226107965634315 0 -0.2041212598054593 0.11086870151373464 0 -0.2041663978410588 0.09832866040715228 0 -0.2043861462179861 0.08486086669337822 0 -0.20489733835738938 0.07045109603369075 0 -0.2057614905925199 0.055151295457143354 0 -0.20699650950971854 0.03904262570055832 0 -0.2085906636606787 0.02221235844084887 0 -0.21051458748052893 0.004741612778352763 0 -0.21272999776334695 -0.013299878254371324 0 -0.21519533974248578 -0.03185503108429799 0 -0.21786908298246477 -0.05087871332979318 0 -0.220711399834827 -0.0703362599922986 0 -0.22368480435592913 -0.09020183414323668 0 -0.22675415636923715 -0.1104569411091738 0 -0.22988629464316823 -0.13108923091945873 0 -0.23304946345654043 -0.15209163693333005 0 -0.23621263226991265 -0.17346186063884284 0 -0.2393447705438438 -0.1952022005479417 0 -0.2424141225571517 -0.21731972330138863 0 -0.24538752707825395 -0.23982677886983433 0 -0.2482298439306162 -0.262741861926713 0 -0.25090358717059513 -0.2860908094006019 0 -0.2533689291497338 -0.3099082862900592 0 -0.25558433943255154 -0.3342394249767193 0 -0.2575082632524015 -0.3591413090336075 0 -0.2591024174033615 -0.3846836714932822 0 -0.2603374363205597 -0.4109476314560812 0 -0.26120158855569003 -0.43802046059891814 0 -0.2617127806950928 -0.4659833196586151 0 -0.2619325290720199 -0.4948881556642255 0 -0.2619776671076192 -0.5247207442770276 0 -0.26202170496526656 -0.5553512789467154 0 -0.2622758785240173 -0.5864830866308837 0 -0.2629438137947604 -0.6176217739781834 0 -0.2641567942266635 -0.6480928175415782 0 -0.26591309921614487 -0.6771247861416905 0 -0.18523303935281887 0.1765607998667522 0 -0.1867752299755748 0.16189498881663045 0 -0.18788676280246927 0.14855825493813588 0 -0.18855415306141038 0.13596437000441378 0 -0.1888576333719351 0.12357783986414583 0 -0.18893725940144823 0.11097319145216296 0 -0.1889521200732562 0.0978577532015201 0 -0.18904694484935008 0.08406294136963646 0 -0.18933284976811598 0.06951742617560575 0 -0.18988169555445072 0.054215534522535025 0 -0.19072957447892436 0.038189563374189835 0 -0.1918845101762359 0.021489447785945696 0 -0.1933348249536898 0.004169719112985013 0 -0.19505633344435158 -0.013717861058919971 0 -0.19701775856691323 -0.032127843772409216 0 -0.19918443611639344 -0.051022330682628896 0 -0.20152063290149624 -0.07037096688253348 0 -0.2039908429481785 -0.0901503596553517 0 -0.20656037547565184 -0.11034331872245018 0 -0.20919547512438472 -0.13093813720180658 0 -0.2118631485968486 -0.15192802743309802 0 -0.21453082206931254 -0.17331076692119068 0 -0.21716592171804527 -0.19508857816121808 0 -0.21973545424551852 -0.2172682488135037 0 -0.2222056642922009 -0.23986148576006922 0 -0.22454186107730367 -0.26288547927954864 0 -0.22670853862678383 -0.28636362208871324 0 -0.22866996374934506 -0.3103262690946079 0 -0.23039147224000675 -0.3348113186420872 0 -0.23184178701746058 -0.35986421968851073 0 -0.23299672271477184 -0.38553673381965065 0 -0.23384460163924525 -0.4118833923906898 0 -0.23439344742557947 -0.4389541304570032 0 -0.234679352344345 -0.4667812449823569 0 -0.23477417712043858 -0.4953590628698577 0 -0.23478903779224636 -0.5246162543385988 0 -0.23486866382175947 -0.5543842356460008 0 -0.23517214413228416 -0.5843703352251174 0 -0.23583953439122524 -0.6141490800107795 0 -0.2369510672181198 -0.6431849758516688 0 -0.23849325784087588 -0.670891794520931 0 -0.16919572230405178 0.1819638359155083 0 -0.17054393293433454 0.16623255438529083 0 -0.17154680541706563 0.1517409799509052 0 -0.17218705759286237 0.1380289297523568 0 -0.1725143202866842 0.1246628952999999 0 -0.17262564885363496 0.11127807947278846 0 -0.1726396924517653 0.09759967560517299 0 -0.1726729614655215 0.08344403452246842 0 -0.17282341202596446 0.06870587164841153 0 -0.17316256306352296 0.05333913345574204 0 -0.1737345501892835 0.037337605873968165 0 -0.17455943883086403 0.020718708766342842 0 -0.17563834710895473 0.0035116073300283848 0 -0.17695871111299968 -0.014250646861134334 0 -0.17849882165537223 -0.03253582763406278 0 -0.1802313295833735 -0.05131505718