# vtk DataFile Version 4.2
Tri2D3N
ASCII

DATASET UNSTRUCTURED_GRID
POINTS 1681 double
0 0 0 25 0 0 50 0 0 75 0 0 100 0 0 125 0 0 150 0 0 175 0 0 200 0 0 225 0 0 250 0 0 275 0 0 300 0 0 325 0 0 350 0 0 375 0 0 400 0 0 425 0 0 450 0 0 475 0 0 500 0 0 525 0 0 550 0 0 575 0 0 600 0 0 625 0 0 650 0 0 675 0 0 700 0 0 725 0 0 750 0 0 775 0 0 800 0 0 825 0 0 850 0 0 875 0 0 900 0 0 925 0 0 950 0 0 975 0 0 1000 0 0 0 25 0 25 25 0 50 25 0 75 25 0 100 25 0 125 25 0 150 25 0 175 25 0 200 25 0 225 25 0 250 25 0 275 25 0 300 25 0 325 25 0 350 25 0 375 25 0 400 25 0 425 25 0 450 25 0 475 25 0 500 25 0 525 25 0 550 25 0 575 25 0 600 25 0 625 25 0 650 25 0 675 25 0 700 25 0 725 25 0 750 25 0 775 25 0 800 25 0 825 25 0 850 25 0 875 25 0 900 25 0 925 25 0 950 25 0 975 25 0 1000 25 0 0 50 0 25 50 0 50 50 0 75 50 0 100 50 0 125 50 0 150 50 0 175 50 0 200 50 0 225 50 0 250 50 0 275 50 0 300 50 0 325 50 0 350 50 0 375 50 0 400 50 0 425 50 0 450 50 0 475 50 0 500 50 0 525 50 0 550 50 0 575 50 0 600 50 0 625 50 0 650 50 0 675 50 0 700 50 0 725 50 0 750 50 0 775 50 0 800 50 0 825 50 0 850 50 0 875 50 0 900 50 0 925 50 0 950 50 0 975 50 0 1000 50 0 0 75 0 25 75 0 50 75 0 75 75 0 100 75 0 125 75 0 150 75 0 175 75 0 200 75 0 225 75 0 250 75 0 275 75 0 300 75 0 325 75 0 350 75 0 375 75 0 400 75 0 425 75 0 450 75 0 475 75 0 500 75 0 525 75 0 550 75 0 575 75 0 600 75 0 625 75 0 650 75 0 675 75 0 700 75 0 725 75 0 750 75 0 775 75 0 800 75 0 825 75 0 850 75 0 875 75 0 900 75 0 925 75 0 950 75 0 975 75 0 1000 75 0 0 100 0 25 100 0 50 100 0 75 100 0 100 100 0 125 100 0 150 100 0 175 100 0 200 100 0 225 100 0 250 100 0 275 100 0 300 100 0 325 100 0 350 100 0 375 100 0 400 100 0 425 100 0 450 100 0 475 100 0 500 100 0 525 100 0 550 100 0 575 100 0 600 100 0 625 100 0 650 100 0 675 100 0 700 100 0 725 100 0 750 100 0 775 100 0 800 100 0 825 100 0 850 100 0 875 100 0 900 100 0 925 100 0 950 100 0 975 100 0 1000 100 0 0 125 0 25 125 0 50 125 0 75 125 0 100 125 0 125 125 0 150 125 0 175 125 0 200 125 0 225 125 0 250 125 0 275 125 0 300 125 0 325 125 0 350 125 0 375 125 0 400 125 0 425 125 0 450 125 0 475 125 0 500 125 0 525 125 0 550 125 0 575 125 0 600 125 0 625 125 0 650 125 0 675 125 0 700 125 0 725 125 0 750 125 0 775 125 0 800 125 0 825 125 0 850 125 0 875 125 0 900 125 0 925 125 0 950 125 0 975 125 0 1000 125 0 0 150 0 25 150 0 50 150 0 75 150 0 100 150 0 125 150 0 150 150 0 175 150 0 200 150 0 225 150 0 250 150 0 275 150 0 300 150 0 325 150 0 350 150 0 375 150 0 400 150 0 425 150 0 450 150 0 475 150 0 500 150 0 525 150 0 550 150 0 575 150 0 600 150 0 625 150 0 650 150 0 675 150 0 700 150 0 725 150 0 750 150 0 775 150 0 800 150 0 825 150 0 850 150 0 875 150 0 900 150 0 925 150 0 950 150 0 975 150 0 1000 150 0 0 175 0 25 175 0 50 175 0 75 175 0 100 175 0 125 175 0 150 175 0 175 175 0 200 175 0 225 175 0 250 175 0 275 175 0 300 175 0 325 175 0 350 175 0 375 175 0 400 175 0 425 175 0 450 175 0 475 175 0 500 175 0 525 175 0 550 175 0 575 175 0 600 175 0 625 175 0 650 175 0 675 175 0 700 175 0 725 175 0 750 175 0 775 175 0 800 175 0 825 175 0 850 175 0 875 175 0 900 175 0 925 175 0 950 175 0 975 175 0 1000 175 0 0 200 0 25 200 0 50 200 0 75 200 0 100 200 0 125 200 0 150 200 0 175 200 0 200 200 0 225 200 0 250 200 0 275 200 0 300 200 0 325 200 0 350 200 0 375 200 0 400 200 0 425 200 0 450 200 0 475 200 0 500 200 0 525 200 0 550 200 0 575 200 0 600 200 0 625 200 0 650 200 0 675 200 0 700 200 0 725 200 0 750 200 0 775 200 0 800 200 0 825 200 0 850 200 0 875 200 0 900 200 0 925 200 0 950 200 0 975 200 0 1000 200 0 0 225 0 25 225 0 50 225 0 75 225 0 100 225 0 125 225 0 150 225 0 175 225 0 200 225 0 225 225 0 250 225 0 275 225 0 300 225 0 325 225 0 350 225 0 375 225 0 400 225 0 425 225 0 450 225 0 475 225 0 500 225 0 525 225 0 550 225 0 575 225 0 600 225 0 625 225 0 650 225 0 675 225 0 700 225 0 725 225 0 750 225 0 775 225 0 800 225 0 825 225 0 850 225 0 875 225 0 900 225 0 925 225 0 950 225 0 975 225 0 1000 225 0 0 250 0 25 250 0 50 250 0 75 250 0 100 250 0 125 250 0 150 250 0 175 250 0 200 250 0 225 250 0 250 250 0 275 250 0 300 250 0 325 250 0 350 250 0 375 250 0 400 250 0 425 250 0 450 250 0 475 250 0 500 250 0 525 250 0 550 250 0 575 250 0 600 250 0 625 250 0 650 250 0 675 250 0 700 250 0 725 250 0 750 250 0 775 250 0 800 250 0 825 250 0 850 250 0 875 250 0 900 250 0 925 250 0 950 250 0 975 250 0 1000 250 0 0 275 0 25 275 0 50 275 0 75 275 0 100 275 0 125 275 0 150 275 0 175 275 0 200 275 0 225 275 0 250 275 0 275 275 0 300 275 0 325 275 0 350 275 0 375 275 0 400 275 0 425 275 0 450 275 0 475 275 0 500 275 0 525 275 0 550 275 0 575 275 0 600 275 0 625 275 0 650 275 0 675 275 0 700 275 0 725 275 0 750 275 0 775 275 0 800 275 0 825 275 0 850 275 0 875 275 0 900 275 0 925 275 0 950 275 0 975 275 0 1000 275 0 0 300 0 25 300 0 50 300 0 75 300 0 100 300 0 125 300 0 150 300 0 175 300 0 200 300 0 225 300 0 250 300 0 275 300 0 300 300 0 325 300 0 350 300 0 375 300 0 400 300 0 425 300 0 450 300 0 475 300 0 500 300 0 525 300 0 550 300 0 575 300 0 600 300 0 625 300 0 650 300 0 675 300 0 700 300 0 725 300 0 750 300 0 775 300 0 800 300 0 825 300 0 850 300 0 875 300 0 900 300 0 925 300 0 950 300 0 975 300 0 1000 300 0 0 325 0 25 325 0 50 325 0 75 325 0 100 325 0 125 325 0 150 325 0 175 325 0 200 325 0 225 325 0 250 325 0 275 325 0 300 325 0 325 325 0 350 325 0 375 325 0 400 325 0 425 325 0 450 325 0 475 325 0 500 325 0 525 325 0 550 325 0 575 325 0 600 325 0 625 325 0 650 325 0 675 325 0 700 325 0 725 325 0 750 325 0 775 325 0 800 325 0 825 325 0 850 325 0 875 325 0 900 325 0 925 325 0 950 325 0 975 325 0 1000 325 0 0 350 0 25 350 0 50 350 0 75 350 0 100 350 0 125 350 0 150 350 0 175 350 0 200 350 0 225 350 0 250 350 0 275 350 0 300 350 0 325 350 0 350 350 0 375 350 0 400 350 0 425 350 0 450 350 0 475 350 0 500 350 0 525 350 0 550 350 0 575 350 0 600 350 0 625 350 0 650 350 0 675 350 0 700 350 0 725 350 0 750 350 0 775 350 0 800 350 0 825 350 0 850 350 0 875 350 0 900 350 0 925 350 0 950 350 0 975 350 0 1000 350 0 0 375 0 25 375 0 50 375 0 75 375 0 100 375 0 125 375 0 150 375 0 175 375 0 200 375 0 225 375 0 250 375 0 275 375 0 300 375 0 325 375 0 350 375 0 375 375 0 400 375 0 425 375 0 450 375 0 475 375 0 500 375 0 525 375 0 550 375 0 575 375 0 600 375 0 625 375 0 650 375 0 675 375 0 700 375 0 725 375 0 750 375 0 775 375 0 800 375 0 825 375 0 850 375 0 875 375 0 900 375 0 925 375 0 950 375 0 975 375 0 1000 375 0 0 400 0 25 400 0 50 400 0 75 400 0 100 400 0 125 400 0 150 400 0 175 400 0 200 400 0 225 400 0 250 400 0 275 400 0 300 400 0 325 400 0 350 400 0 375 400 0 400 400 0 425 400 0 450 400 0 475 400 0 500 400 0 525 400 0 550 400 0 575 400 0 600 400 0 625 400 0 650 400 0 675 400 0 700 400 0 725 400 0 750 400 0 775 400 0 800 400 0 825 400 0 850 400 0 875 400 0 900 400 0 925 400 0 950 400 0 975 400 0 1000 400 0 0 425 0 25 425 0 50 425 0 75 425 0 100 425 0 125 425 0 150 425 0 175 425 0 200 425 0 225 425 0 250 425 0 275 425 0 300 425 0 325 425 0 350 425 0 375 425 0 400 425 0 425 425 0 450 425 0 475 425 0 500 425 0 525 425 0 550 425 0 575 425 0 600 425 0 625 425 0 650 425 0 675 425 0 700 425 0 725 425 0 750 425 0 775 425 0 800 425 0 825 425 0 850 425 0 875 425 0 900 425 0 925 425 0 950 425 0 975 425 0 1000 425 0 0 450 0 25 450 0 50 450 0 75 450 0 100 450 0 125 450 0 150 450 0 175 450 0 200 450 0 225 450 0 250 450 0 275 450 0 300 450 0 325 450 0 350 450 0 375 450 0 400 450 0 425 450 0 450 450 0 475 450 0 500 450 0 525 450 0 550 450 0 575 450 0 600 450 0 625 450 0 650 450 0 675 450 0 700 450 0 725 450 0 750 450 0 775 450 0 800 450 0 825 450 0 850 450 0 875 450 0 900 450 0 925 450 0 950 450 0 975 450 0 1000 450 0 0 475 0 25 475 0 50 475 0 75 475 0 100 475 0 125 475 0 150 475 0 175 475 0 200 475 0 225 475 0 250 475 0 275 475 0 300 475 0 325 475 0 350 475 0 375 475 0 400 475 0 425 475 0 450 475 0 475 475 0 500 475 0 525 475 0 550 475 0 575 475 0 600 475 0 625 475 0 650 475 0 675 475 0 700 475 0 725 475 0 750 475 0 775 475 0 800 475 0 825 475 0 850 475 0 875 475 0 900 475 0 925 475 0 950 475 0 975 475 0 1000 475 0 0 500 0 25 500 0 50 500 0 75 500 0 100 500 0 125 500 0 150 500 0 175 500 0 200 500 0 225 500 0 250 500 0 275 500 0 300 500 0 325 500 0 350 500 0 375 500 0 400 500 0 425 500 0 450 500 0 475 500 0 500 500 0 525 500 0 550 500 0 575 500 0 600 500 0 625 500 0 650 500 0 675 500 0 700 500 0 725 500 0 750 500 0 775 500 0 800 500 0 825 500 0 850 500 0 875 500 0 900 500 0 925 500 0 950 500 0 975 500 0 1000 500 0 0 525 0 25 525 0 50 525 0 75 525 0 100 525 0 125 525 0 150 525 0 175 525 0 200 525 0 225 525 0 250 525 0 275 525 0 300 525 0 325 525 0 350 525 0 375 525 0 400 525 0 425 525 0 450 525 0 475 525 0 500 525 0 525 525 0 550 525 0 575 525 0 600 525 0 625 525 0 650 525 0 675 525 0 700 525 0 725 525 0 750 525 0 775 525 0 800 525 0 825 525 0 850 525 0 875 525 0 900 525 0 925 525 0 950 525 0 975 525 0 1000 525 0 0 550 0 25 550 0 50 550 0 75 550 0 100 550 0 125 550 0 150 550 0 175 550 0 200 550 0 225 550 0 250 550 0 275 550 0 300 550 0 325 550 0 350 550 0 375 550 0 400 550 0 425 550 0 450 550 0 475 550 0 500 550 0 525 550 0 550 550 0 575 550 0 600 550 0 625 550 0 650 550 0 675 550 0 700 550 0 725 550 0 750 550 0 775 550 0 800 550 0 825 550 0 850 550 0 875 550 0 900 550 0 925 550 0 950 550 0 975 550 0 1000 550 0 0 575 0 25 575 0 50 575 0 75 575 0 100 575 0 125 575 0 150 575 0 175 575 0 200 575 0 225 575 0 250 575 0 275 575 0 300 575 0 325 575 0 350 575 0 375 575 0 400 575 0 425 575 0 450 575 0 475 575 0 500 575 0 525 575 0 550 575 0 575 575 0 600 575 0 625 575 0 650 575 0 675 575 0 700 575 0 725 575 0 750 575 0 775 575 0 800 575 0 825 575 0 850 575 0 875 575 0 900 575 0 925 575 0 950 575 0 975 575 0 1000 575 0 0 600 0 25 600 0 50 600 0 75 600 0 100 600 0 125 600 0 150 600 0 175 600 0 200 600 0 225 600 0 250 600 0 275 600 0 300 600 0 325 600 0 350 600 0 375 600 0 400 600 0 425 600 0 450 600 0 475 600 0 500 600 0 525 600 0 550 600 0 575 600 0 600 600 0 625 600 0 650 600 0 675 600 0 700 600 0 725 600 0 750 600 0 775 600 0 800 600 0 825 600 0 850 600 0 875 600 0 900 600 0 925 600 0
[...]
POINT_DATA 1681

VECTORS displacement double
0 0 0 -8.19426975611133 8.510200593867598 0 -13.373739668888309 10.957442319823082 0 -17.099098142060836 11.505392675893232 0 -19.932597560711837 11.212167960571946 0 -22.185990480958708 10.47406797519866 0 -24.047261883714203 9.469908879043324 0 -25.633953437394588 8.290963587055012 0 -27.022179572728273 6.988551016809987 0 -28.263083870702495 5.5938156970053345 0 -29.392309538495905 4.126776032982884 0 -30.435552807141487 2.6008344914755295 0 -31.41190512297891 1.0252125612849368 0 -32.33592955941193 -0.5936365369237787 0 -33.21899770574097 -2.2511564266503425 0 -34.070183789626256 -3.944123154935292 0 -34.89688679291091 -5.670266312271849 0 -35.70528142669366 -7.428008981378211 0 -36.500659464916495 -9.216288030741001 0 -37.28770039463044 -11.034431751112724 0 -38.07069727764672 -12.882080898472811 0 -38.85375617677952 -14.759144929136893 0 -39.6409833584174 -16.665789191752918 0 -40.43667264758156 -18.60245199947397 0 -41.24550531605425 -20.56989347670818 0 -42.072776725439475 -22.569281428880856 0 -42.924668081578524 -24.60232391930085 0 -43.8085891570112 -26.67146483243761 0 -44.73363077197839 -28.780169355845302 0 -45.71118801142196 -30.933344623724608 0 -46.755853598653324 -33.137973904291464 0 -47.886748360702505 -35.40410552121043 0 -49.12957554192503 -37.74646192737525 0 -50.51989884004075 -40.187190011746075 0 -52.10851806485437 -42.760819698738814 0 -53.97044487043645 -45.52370527748746 0 -56.21992311282322 -48.57298606388928 0 -59.03490669026475 -52.086630531120896 0 -62.69362620021101 -56.411730610966046 0 -67.61861371986672 -62.25794044442262 0 -74.4597908497485 -70.90177271776878 0 -13.44849115959568 4.186682624846324 0 -14.907657747107454 9.388370816290609 0 -16.642650096704305 11.506087359411898 0 -18.467913966098358 12.01889625093226 0 -20.22473004473987 11.703132898162643 0 -21.844168767640408 10.931792853898315 0 -23.313226685836085 9.890221524297534 0 -24.643571361245503 8.67549527866398 0 -25.854782375577717 7.341547148653633 0 -26.966991489849537 5.920162517405314 0 -27.99819980811087 4.431098563410666 0 -28.96363769139617 2.8871811469254545 0 -29.87591245869621 1.2970086252540276 0 -30.745399600191273 -0.3335298818486816 0 -31.580662646013547 -2.000351753035171 0 -32.38882904579881 -3.700615314108278 0 -33.17590651141885 -5.432350051893021 0 -33.94704481920396 -7.194207519981731 0 -34.70675384492142 -8.985291297188162 0 -35.45908895210824 -10.80504202180154 0 -36.207813587602665 -12.653163407016843 0 -36.956547520374386 -14.52958109049705 0 -37.7089080987025 -16.434430121814902 0 -38.46865134556397 -18.368069902412017 0 -39.23981969942283 -20.331128134164743 0 -40.02690375472466 -22.32457835993604 0 -40.835026480296 -24.34985963552416 0 -41.67016007153461 -26.40905272944329 0 -42.5393876239937 -28.505136717716287 0 -43.45122346927968 -30.642366200604254 0 -44.416005149295515 -32.82683921288282 0 -45.446360979637134 -35.0673830444066 0 -46.55772589666326 -37.37699954765229 0 -47.76879090623073 -39.77534979662601 0 -49.10154841383073 -42.29327307121661 0 -50.58005471868104 -44.98148702169063 0 -52.22576510891846 -47.92827769871837 0 -54.04441675458665 -51.297378213631674 0 -55.99273245706714 -55.41386158707012 0 -57.889048903431046 -60.98774991883116 0 -58.935200918325314 -70.20792072321917 0 -18.168928620187152 6.713491473157437 0 -18.669660499188033 9.91498462732709 0 -19.237373433364013 11.61955352082125 0 -20.009308110300566 12.13014603842101 0 -20.937891415075498 11.878338912132296 0 -21.9439598668512 11.157283961868224 0 -22.967726577555066 10.143106012290321 0 -23.974083626435483 8.938928736857422 0 -24.94604309783406 7.605563369773845 0 -25.87767809799954 6.179654875084026 0 -26.769104322323408 4.683903874938379 0 -27.623407953717592 3.1327732540512923 0 -28.44491631136854 1.5357090801332747 0 -29.23828663045109 -0.10099867429302818 0 -30.008061628994344 -1.773107500657879 0 -30.758480433149746 -3.4777388297528895 0 -31.493424711728643 -5.212942427645417 0 -32.216434172775365 -6.977411154648278 0 -32.930756329288855 -8.770291256855508 0 -33.639412358808286 -10.591056741966188 0 -34.34527000639266 -12.439429596306278 0 -35.05111930782394 -14.31533543137535 0 -35.75974936667156 -16.218889172208698 0 -36.47402551092328 -18.15040905804326 0 -37.196966336974825 -20.110460430329297 0 -37.931819499717896 -22.09993426857144 0 -38.68213335872367 -24.12017002932851 0 -39.45181801153437 -26.173139288729313 0 -40.24518233500167 -28.26171815899562 0 -41.06692051710479 -30.390096552576683 0 -41.9219967282307 -32.56440916493256 0 -42.81532994944316 -34.793742716330904 0 -43.75109450768859 -37.09180941730643 0 -44.73129551987758 -39.47984487978247 0 -45.75300983266129 -41.991825408188326 0 -46.80327149860161 -44.68417097119431 0 -47.8501360198632 -47.654193675531 0 -48.82875971706537 -51.07543221633654 0 -49.62606698062088 -55.26429666923175 0 -50.10123996261762 -60.786615316110556 0 -50.67887281754502 -67.94940443444835 0 -20.222338786677977 8.747119222496522 0 -20.5346515561225 10.524919908982412 0 -20.74909057252371 11.693765402968154 0 -21.05372004034122 12.087185856800403 0 -21.501131094718325 11.862055344998469 0 -22.072962055823535 11.199521292695232 0 -22.730954155551437 10.238317537143246 0 -23.439543206434358 9.073046676325983 0 -24.172342358259378 7.765555994610275 0 -24.912012435840136 6.3557743293025615 0 -25.648192187971958 4.869518318398568 0 -26.37533389989002 3.3236153977722602 0 -27.090996199249854 1.7291468519617441 0 -27.794646307546902 0.09348022457015029 0 -28.486872504574922 -1.5784517013971862 0 -29.16888854867461 -3.283336234124855 0 -29.84223332387033 -5.018953721998707 0 -30.508596457250206 -6.783831596976313 0 -31.169723386699484 -8.577015481544423 0 -31.82736960892698 -10.397918841341191 0 -32.48328460309775 -12.246228109885612 0 -33.13921266888745 -14.121849825650834 0 -33.796901841199656 -16.024892668324252 0 -34.458113940170165 -17.955681954670272 0 -35.12462908760702 -19.914808249040572 0 -35.79823671383244 -21.903216185328674 0 -36.48070186176737 -23.922345434694645 0 -37.173689676848795 -25.974344505896777 0 -37.87862093084772 -28.06239225522643 0 -38.596414983080074 -30.191186047575144 0 -39.32705043993616 -32.36769738142212 0 -40.068834091397186 -34.60236951267611 0 -40.81721390863124 -36.9110610604121 0 -41.5629130779244 -39.31826132711994 0 -42.28915626074212 -41.862457607934715 0 -42.96801013207137 -44.60500036189801 0 -43.55702082874727 -47.64399568582132 0 -44.001478675045576 -51.132498794004405 0 -44.26205856991601 -55.28433080424109 0 -44.437917011214445 -60.26086200109548 0 -44.88972940553488 -65.87070879843185 0 -21.015696998709668 10.410183002566734 0 -21.281042924230512 11.2179112604608 0 -21.40273434287781 11.857358886935073 0 -21.52348076666694 12.044575542463233 0 -21.724391685560402 11.777623288540005 0 -22.028483803123045 11.140401146940777 0 -22.42729781884802 10.223945072188881 0 -22.900860046029493 9.102830731544623 0 -23.428201318142346 7.8321880529574015 0 -23.991613722401983 6.450920957188019 0 -24.577666594848438 4.98589032053408 0 -25.176841765261436 3.4554664153739494 0 -25.7827385193195 1.8721710816152297 0 -26.391265689114032 0.24453366242906846 0 -26.99996848806982 -1.4216384911619604 0 -27.607516919795906 -3.1223989168166084 0 -28.213336600216913 -4.855079593159203 0 -28.81735069875695 -6.6178968210664895 0 -29.419803000002176 -8.40968533143951 0 -30.021137466109504 -10.229721555752993 0 -30.621915280188226 -12.077611252051101 0 -31.222754813516637 -13.953226386682378 0 -31.824282954310494 -15.856683059114259 0 -32.42708777130013 -17.788357610682354 0 -33.031662602700244 -19.74894289516079 0 -33.63833030237316 -21.739551949736246 0 -34.24713333074311 -23.761883063538757 0 -34.857670289864565 -25.818469961483828 0 -35.46885196483242 -27.913055691793645 0 -36.07853986370991 -30.051152148027246 0 -36.68301895230539 -32.24088374867312 0 -37.27624929546713 -34.4942693792786 0 -37.84885555867385 -36.829174155877645 0 -38.38689438581924 -39.272246897956975 0 -38.870702070373014 -41.86316761226352 0 -39.27484056848714 -44.66015634240097 0 -39.57192770146274 -47.74494903136708 0 -39.747015763560796 -51.21938183064124 0 -39.83442646047052 -55.16927743899843 0 -39.963176374700026 -59.569650146906355 0 -40.33802641960037 -64.1496352083932 0 -21.09241477898431 11.781835150867936 0 -21.336345475933584 11.932697914380338 0 -21.442605828073347 12.114456124808962 0 -21.501663680088978 12.060763016575486 0 -21.587830031596706 11.698478584216447 0 -21.740292255954575 11.045500285197257 0 -21.970581994281034 10.150048892439361 0 -22.27437000070829 9.062999272391728 0 -22.640423124164588 7.827836265175537 0 -23.05590113592918 6.4785149109244395 0 -23.50895641782029 5.040336623727128 0 -23.989718070381695 3.531664237460304 0 -24.490437602792397 1.9656174891196088 0 -25.00526391601989 0.3514763745719281 0 -25.529897571670897 -1.304243831299941 0 -26.061243117402086 -2.9970011055177084 0 -26.597106742065193 -4.723656825716326 0 -27.135950947272605 -6.482071565793077 0 -27.67670205521316 -8.270822690018502 0 -28.21860049408392 -10.089011847351978 0 -28.76108250353668 -11.936140400353338 0 -29.30368235254796 -13.812038642130238 0 -29.845944955300556 -15.71684085871379 0 -30.38733923932406 -17.65100353610176 0 -30.927162457984437 -19.615368972017016 0 -31.46442472095027 -21.61128194920278 0 -31.997701355189378 -23.64077377421251 0 -32.52493855833691 -25.706836859619816 0 -33.0431959812031 -27.81382525606092 0 -33.548310511619555 -29.968033112369586 0 -34.034473722890574 -32.17852369076597 0 -34.493742646272025 -34.45830141127081 0 -34.915574170262325 -36.825919864868425 0 -35.28663661950786 -39.30754453826773 0 -35.591497615414454 -41.93919398115677 0 -35.815444128294295 -44.76801849071764 0 -35.95168346907669 -47.84934905063292 0 -36.015532965313305 -51.232285407341216 0 -36.062481138241836 -54.92501768050431 0 -36.19199938656133 -58.84033702394689 0 -36.50959472497235 -62.73871958241651 0 -20.713707692657774 12.928267209020774 0 -20.93879701075339 12.625532617136813 0 -21.047741211693157 12.434784789248194 0 -21.09293373083898 12.14315923654864 0 -21.131599310193177 11.656359266982498 0 -21.204019199241273 10.954680857132091 0 -21.331105865788462 10.054494472167876 0 -21.519222075708825 8.984995516569711 0 -21.765924671998715 7.7765722999659195 0 -22.06442355626308 6.455966357823975 0 -22.406444845866904 5.04488542079937 0 -22.783826816244535 3.5601620925273965 0 -23.189274725443013 2.0144808688681697 0 -23.616618802268473 0.41721757027354156 0 -24.060808532613823 -1.2247964111895402 0 -24.517785102894038 -2.9066444732683947 0 -24.984311009669078 -4.624833374962822 0 -25.45779665817889 -6.3769229948183686 0 -25.93614103519012 -8.161255633413582 0 -26.417591152898297 -9.976765191348477 0 -26.900618624239215 -11.82285077987356 0 -27.383808696581937 -13.699303983676463 0 -27.86575569330649 -15.606283492204883 0 -28.34495816745827 -17.544335108385358 0 -28.81970670552493 -19.51445944755134 0 -29.287957124927 -21.518234279181666 0 -29.747182026175107 -23.558003777660694 0 -30.194195033465164 -25.637153144480717 0 -30.62494621620577 -27.760493882165214 0 -31.034297395467988 -29.934790873236807 0 -31.415808525234524 -32.16946252103842 0 -31.76161231236464 -34.47746714620756 0 -32.06254220569934 -36.87632374970918 0 -32.3088340726473 -39.38904162231414 0 -32.491960254019446 -42.044335286639736 0 -32.60840979591691 -44.87471556944236 0 -32.66611145308539 -47.90986432210067 0 -32.69251794433893 -51.16207971019541 0 -32.73911692889707 -54.60271622505351 0 -32.87278435404682 -58.13421107286719 0 -33.14552971461813 -61.56845038622056 0 -20.021588463406545 13.899577374785292 0 -20.227121295671076 13.273688345459826 0 -20.33923293001794 12.786943840045875 0 -20.386441643087164 12.279084014500311 0 -20.409284214718753 11.658291167362526 0 -20.442601656986543 10.887089926824897 0 -20.509564557006183 9.961065893632068 0 -20.62218627093841 8.89229061957444 0 -20.784172598750278 7.699021285001712 0 -20.993954026477546 6.400164832064513 0 -21.24709243653063 5.012723722244472 0 -21.537925092722894 3.550903406325811 0 -21.860568050333768 2.026054638747497 0 -22.209460279983006 0.44698037892250264 0 -22.579609603180376 -1.179640112208277 0 -22.966659962143545 -2.8488293241452913 0 -23.36686002720258 -4.556942102337353 0 -23.77698271468765 -6.301364517169847 0 -24.19422411935873 -8.080280825428167 0 -24.616096741191814 -9.89250233568416 0 -25.04032351616499 -11.73735089778335 0 -25.46473424351721 -13.614590977649788 0 -25.887163261006474 -15.524406569477527 0 -26.305345855481313 -17.467421959711995 0 -26.71681051211619 -19.444768361346686 0 -27.118764674366677 -21.458201572559847 0 -27.50797359036114 -23.510278886050617 0 -27.880635996913046 -25.604605922819765 0 -28.232268608024107 -27.746164444488812 0 -28.557626644440095 -29.9417272021625 0 -28.850714656138063 -32.20034849188621 0 -29.10498693170276 -34.53387545994976 0 -29.313905360189633 -36.957330355686025 0 -29.472109940330604 -39.488829362194295 0 -29.577520354805763 -42.14839041546648 0 -29.63458230541009 -44.95456939806238 0 -29.658280239811525 -47.917626457684484 0 -29.677156751460682 -51.02848734827424 0 -29.731847039539833 -54.244636196954154 0 -29.865116093950263 -57.47683027213679 0 -30.101602237158783 -60.582919829923036 0 -19.100686351996952 14.73174067605614 0 -19.286396885692128 13.867730659236079 0 -19.398120571963624 13.147022432790235 0 -19.450486879060605 12.451069090558429 0 -19.47093792167486 11.699380463298283 0 -19.48715793436166 10.84859008521175 0 -19.520787782484675 9.882231296336398 0 -19.585838891062686 8.800165409763983 0 -19.68954678649785 7.610652097568089 0 -19.83407358912463 6.325273247202396 0 -20.018220159235845 4.9560438707327465 0 -20.238812540109063 3.5139649794604413 0 -20.491695334100314 2.008438427404514 0 -20.772380120251064 0.44715381706838975 0 -21.07643097522388 -1.1637927817958518 0 -21.39966623147908 -2.819686733770713 0 -21.738239743972976 -4.51696404880444 0 -22.08864734539455 -6.25299904580347 0 -22.447689200896757 -8.025926736382857 0 -22.81240749252929 -9.834505395509428 0 -23.180010983861123 -11.678019838779958 0 -23.547792846705264 -13.556224266653244 0 -23.91304500533601 -15.469323657331843 0 -24.272970688393467 -17.417993714724528 0 -24.62459664479779 -19.40344075293875 0 -24.964687635094144 -21.427504156233397 0 -25.28966875039996 -23.492804571756842 0 -25.59556665163164 -25.602939681452543 0 -25.877990274373015 -27.76272421685596 0 -26.132186695667336 -29.978458083157527 0 -26.353230526819846 -32.25817957525107 0 -26.536435610801313 -34.61180956234663 0 -26.678110174253877 -37.05100414724112 0 -26.776789147275007 -39.58839883226261 0 -26.835015256139474 -42.2357651355237 0 -26.86150332257803 -45.00050362197645 0 -26.87301348888109 -47.880065520433014 0 -26.89456221569547 -50.854546057448495 0 -26.956150784023684 -53.878827868988175 0 -27.084624606183286 -56.87692874861954 0 -27.290945888722277 -59.74215478444757 0 -18.005439683101084 15.450174421924054 0 -18.171764672484915 14.405190961355691 0 -18.279554989131334 13.498834688990557 0 -18.33573253877879 12.64302292327474 0 -18.358406846705204 11.770321268635913 0 -18.368565826754775 10.837736109901185 0 -18.384755233281478 9.822765592975772 0 -18.42077667568506 8.717271666892628 0 -18.48539186706199 7.521922966517312 0 -18.583036015347105 6.24207013583452 0 -18.71486777706336 4.885030947194897 0 -18.879792486622517 3.458469187515893 0 -19.0753050241158 1.9695247839607504 0 -19.2981164629866 0.42441811116015044 0 -19.544584080967578 -1.1716683381971431 0 -19.810983847423532 -2.814560130093958 0 -20.093666040095904 -4.500992888496309 0 -20.389128705976354 -6.228493089214718 0 -20.694035758060078 -7.995263776772213 0 -21.005199110259557 -9.800088853383494 0 -21.319538326578055 -11.642262555510044 0 -21.634026976389357 -13.52154709203954 0 -21.94563214020041 -15.438159781363264 0 -22.251252157249642 -17.392790445477125 0 -22.547657695189773 -19.386649583638615 0 -22.831442657554366 -21.421547279928504 0 -23.098994622822556 -23.500001052494085 0 -23.34649991143792 -25.625366661408076 0 -23.570006569234256 -27.80197726193044 0 -23.765579842863097 -30.0352601767939 0 -23.92959826936898 -32.331772779139925 0 -24.059250400245773 -34.69905502140902 0 -24.153291877698756 -37.14513447901559 0 -24.213087959606764 -39.677450074882266 0 -24.24386209498361 -42.30091799520122 0 -24.255862904791233 -45.01491903472616 0 -24.264866265624516 -47.80922930153495 0 -24.29117431881702 -50.65938559838543 0 -24.356294709884722 -53.5225934752813 0 -24.47700149280033 -56.3358612879054 0 -24.657543962742785 -59.01838379619385 0 -16.773221893499898 16.07288342591348 0 -16.92098474117152 14.886820706419568 0 -17.022212366533758 13.832062147025164 0 -17.079707709198644 12.842039061071224 0 -17.105254271853774 11.861184947586837 0 -17.114340620323958 10.84970026117526 0 -17.12208954749531 9.782805285523175 0 -17.14096280252212 8.647548805307158 0 -17.17992463399992 7.439196076445891 0 -17.244521224321772 6.1581394806851115 0 -17.33741087031574 4.8076027427340176 0 -17.459035714651883 3.3920895313686716 0 -17.60826377118574 1.9164166405750962 0 -17.78292499141203 0.38516195396494424 0 -17.980221090103488 -1.1976143026634503 0 -18.197017239176784 -2.8284800427316275 0 -18.430035241841292 -4.5046460891809765 0 -18.67597013586419 -6.223932799196994 0 -18.931550221781492 -7.98471840031257 0 -19.19355705879527 -9.785887049141907 0 -19.458818471035194 -11.626787060760323 0 -19.7241847403997 -13.507205110909473 0 -19.98649621156253 -15.427359405781488 0 -20.24254961342237 -17.387912996250478 0 -20.489070585181402 -19.390006862080227 0 -20.722701286340765 -21.435310385581047 0 -20.940014702060452 -23.526083518212946 0 -21.13757142433514 -25.665239191968574 0 -21.312040151243988 -27.856384847515244 0 -21.460409077351983 -30.103806549265837 0 -21.580319416606013 -32.41233644717155 0 -21.670549352151475 -34.787014421535865 0 -21.731657285366154 -37.23242250388822 0 -21.76674351176079 -39.75155059836894 0 -21.78219636929942 -42.34407203685911 0 -21.788155377347096 -45.00400451527619 0 -21.798290336120473 -47.71693242171885 0 -21.82844833945223 -50.45725801012089 0 -21.89386523260155 -53.18626602864733 0 -22.005039640748677 -55.85203081960241 0 -22.16300540580976 -58.39227425289553 0 -15.43115106876558 16.61276992641828 0 -15.561292693831312 15.314634223434338 0 -15.654217362241937 14.140362011077 0 -15.710615998158454 13.038423111596975 0 -15.738099647479979 11.963050274965562 0 -15.747925764862291 10.878555282789463 0 -15.752052854053302 9.76002124642689 0 -15.76115852329518 8.5918978234002 0 -15.78363638570825 7.365817793505211 0 -15.825323656656252 6.078425158896069 0 -15.889672432673217 4.729568065028122 0 -15.978134554452376 3.320945421878501 0 -16.090607422352143 1.8551678683596984 0 -16.22585412783083 0.335147885214053 0 -16.381857551171485 -1.2362702430642052 0 -16.556096533339932 -2.8565167891325203 0 -16.745747651952094 -4.523397820788025 0 -16.947823162693055 -6.235133460865139 0 -17.159257849111786 -7.990362079425496 0 -17.376957241266503 -9.78812947382887 0 -17.597818395334375 -11.627875110075971 0 -17.818733029889675 -13.50942267555007 0 -18.03658176390624 -15.432978816249843 0 -18.248227752442485 -17.399141343986596 0 -18.450518307166806 -19.408915780764932 0 -18.640304184905283 -21.46373622425277 0 -18.814488101084976 -23.565482465949717 0 -18.97011646284577 -25.716479273607657 0 -19.104530714271032 -27.919454934405103 0 -19.21559569599518 -30.17742396336505 0 -19.302019457541682 -32.493443639680294 0 -19.363767735083982 -34.87017822459535 0 -19.40255097972337 -37.309194751344755 0 -19.422316976466337 -39.8099219413865 0 -19.42961793073034 -42.368245168678826 0 -19.433651115432635 -44.97479971927402 0 -19.445729466847908 -47.61316351681311 0 -19.47796948417803 -50.25831855358681 0 -19.541129894065083 -52.87590509052335 0 -19.641807897711896 -55.422881587030176 0 -19.779568935593097 -57.85017692606694 0 -13.