# vtk DataFile Version 4.2
Tri2D3N
ASCII

DATASET UNSTRUCTURED_GRID
POINTS 1681 double
0 0 0 25 0 0 50 0 0 75 0 0 100 0 0 125 0 0 150 0 0 175 0 0 200 0 0 225 0 0 250 0 0 275 0 0 300 0 0 325 0 0 350 0 0 375 0 0 400 0 0 425 0 0 450 0 0 475 0 0 500 0 0 525 0 0 550 0 0 575 0 0 600 0 0 625 0 0 650 0 0 675 0 0 700 0 0 725 0 0 750 0 0 775 0 0 800 0 0 825 0 0 850 0 0 875 0 0 900 0 0 925 0 0 950 0 0 975 0 0 1000 0 0 0 25 0 25 25 0 50 25 0 75 25 0 100 25 0 125 25 0 150 25 0 175 25 0 200 25 0 225 25 0 250 25 0 275 25 0 300 25 0 325 25 0 350 25 0 375 25 0 400 25 0 425 25 0 450 25 0 475 25 0 500 25 0 525 25 0 550 25 0 575 25 0 600 25 0 625 25 0 650 25 0 675 25 0 700 25 0 725 25 0 750 25 0 775 25 0 800 25 0 825 25 0 850 25 0 875 25 0 900 25 0 925 25 0 950 25 0 975 25 0 1000 25 0 0 50 0 25 50 0 50 50 0 75 50 0 100 50 0 125 50 0 150 50 0 175 50 0 200 50 0 225 50 0 250 50 0 275 50 0 300 50 0 325 50 0 350 50 0 375 50 0 400 50 0 425 50 0 450 50 0 475 50 0 500 50 0 525 50 0 550 50 0 575 50 0 600 50 0 625 50 0 650 50 0 675 50 0 700 50 0 725 50 0 750 50 0 775 50 0 800 50 0 825 50 0 850 50 0 875 50 0 900 50 0 925 50 0 950 50 0 975 50 0 1000 50 0 0 75 0 25 75 0 50 75 0 75 75 0 100 75 0 125 75 0 150 75 0 175 75 0 200 75 0 225 75 0 250 75 0 275 75 0 300 75 0 325 75 0 350 75 0 375 75 0 400 75 0 425 75 0 450 75 0 475 75 0 500 75 0 525 75 0 550 75 0 575 75 0 600 75 0 625 75 0 650 75 0 675 75 0 700 75 0 725 75 0 750 75 0 775 75 0 800 75 0 825 75 0 850 75 0 875 75 0 900 75 0 925 75 0 950 75 0 975 75 0 1000 75 0 0 100 0 25 100 0 50 100 0 75 100 0 100 100 0 125 100 0 150 100 0 175 100 0 200 100 0 225 100 0 250 100 0 275 100 0 300 100 0 325 100 0 350 100 0 375 100 0 400 100 0 425 100 0 450 100 0 475 100 0 500 100 0 525 100 0 550 100 0 575 100 0 600 100 0 625 100 0 650 100 0 675 100 0 700 100 0 725 100 0 750 100 0 775 100 0 800 100 0 825 100 0 850 100 0 875 100 0 900 100 0 925 100 0 950 100 0 975 100 0 1000 100 0 0 125 0 25 125 0 50 125 0 75 125 0 100 125 0 125 125 0 150 125 0 175 125 0 200 125 0 225 125 0 250 125 0 275 125 0 300 125 0 325 125 0 350 125 0 375 125 0 400 125 0 425 125 0 450 125 0 475 125 0 500 125 0 525 125 0 550 125 0 575 125 0 600 125 0 625 125 0 650 125 0 675 125 0 700 125 0 725 125 0 750 125 0 775 125 0 800 125 0 825 125 0 850 125 0 875 125 0 900 125 0 925 125 0 950 125 0 975 125 0 1000 125 0 0 150 0 25 150 0 50 150 0 75 150 0 100 150 0 125 150 0 150 150 0 175 150 0 200 150 0 225 150 0 250 150 0 275 150 0 300 150 0 325 150 0 350 150 0 375 150 0 400 150 0 425 150 0 450 150 0 475 150 0 500 150 0 525 150 0 550 150 0 575 150 0 600 150 0 625 150 0 650 150 0 675 150 0 700 150 0 725 150 0 750 150 0 775 150 0 800 150 0 825 150 0 850 150 0 875 150 0 900 150 0 925 150 0 950 150 0 975 150 0 1000 150 0 0 175 0 25 175 0 50 175 0 75 175 0 100 175 0 125 175 0 150 175 0 175 175 0 200 175 0 225 175 0 250 175 0 275 175 0 300 175 0 325 175 0 350 175 0 375 175 0 400 175 0 425 175 0 450 175 0 475 175 0 500 175 0 525 175 0 550 175 0 575 175 0 600 175 0 625 175 0 650 175 0 675 175 0 700 175 0 725 175 0 750 175 0 775 175 0 800 175 0 825 175 0 850 175 0 875 175 0 900 175 0 925 175 0 950 175 0 975 175 0 1000 175 0 0 200 0 25 200 0 50 200 0 75 200 0 100 200 0 125 200 0 150 200 0 175 200 0 200 200 0 225 200 0 250 200 0 275 200 0 300 200 0 325 200 0 350 200 0 375 200 0 400 200 0 425 200 0 450 200 0 475 200 0 500 200 0 525 200 0 550 200 0 575 200 0 600 200 0 625 200 0 650 200 0 675 200 0 700 200 0 725 200 0 750 200 0 775 200 0 800 200 0 825 200 0 850 200 0 875 200 0 900 200 0 925 200 0 950 200 0 975 200 0 1000 200 0 0 225 0 25 225 0 50 225 0 75 225 0 100 225 0 125 225 0 150 225 0 175 225 0 200 225 0 225 225 0 250 225 0 275 225 0 300 225 0 325 225 0 350 225 0 375 225 0 400 225 0 425 225 0 450 225 0 475 225 0 500 225 0 525 225 0 550 225 0 575 225 0 600 225 0 625 225 0 650 225 0 675 225 0 700 225 0 725 225 0 750 225 0 775 225 0 800 225 0 825 225 0 850 225 0 875 225 0 900 225 0 925 225 0 950 225 0 975 225 0 1000 225 0 0 250 0 25 250 0 50 250 0 75 250 0 100 250 0 125 250 0 150 250 0 175 250 0 200 250 0 225 250 0 250 250 0 275 250 0 300 250 0 325 250 0 350 250 0 375 250 0 400 250 0 425 250 0 450 250 0 475 250 0 500 250 0 525 250 0 550 250 0 575 250 0 600 250 0 625 250 0 650 250 0 675 250 0 700 250 0 725 250 0 750 250 0 775 250 0 800 250 0 825 250 0 850 250 0 875 250 0 900 250 0 925 250 0 950 250 0 975 250 0 1000 250 0 0 275 0 25 275 0 50 275 0 75 275 0 100 275 0 125 275 0 150 275 0 175 275 0 200 275 0 225 275 0 250 275 0 275 275 0 300 275 0 325 275 0 350 275 0 375 275 0 400 275 0 425 275 0 450 275 0 475 275 0 500 275 0 525 275 0 550 275 0 575 275 0 600 275 0 625 275 0 650 275 0 675 275 0 700 275 0 725 275 0 750 275 0 775 275 0 800 275 0 825 275 0 850 275 0 875 275 0 900 275 0 925 275 0 950 275 0 975 275 0 1000 275 0 0 300 0 25 300 0 50 300 0 75 300 0 100 300 0 125 300 0 150 300 0 175 300 0 200 300 0 225 300 0 250 300 0 275 300 0 300 300 0 325 300 0 350 300 0 375 300 0 400 300 0 425 300 0 450 300 0 475 300 0 500 300 0 525 300 0 550 300 0 575 300 0 600 300 0 625 300 0 650 300 0 675 300 0 700 300 0 725 300 0 750 300 0 775 300 0 800 300 0 825 300 0 850 300 0 875 300 0 900 300 0 925 300 0 950 300 0 975 300 0 1000 300 0 0 325 0 25 325 0 50 325 0 75 325 0 100 325 0 125 325 0 150 325 0 175 325 0 200 325 0 225 325 0 250 325 0 275 325 0 300 325 0 325 325 0 350 325 0 375 325 0 400 325 0 425 325 0 450 325 0 475 325 0 500 325 0 525 325 0 550 325 0 575 325 0 600 325 0 625 325 0 650 325 0 675 325 0 700 325 0 725 325 0 750 325 0 775 325 0 800 325 0 825 325 0 850 325 0 875 325 0 900 325 0 925 325 0 950 325 0 975 325 0 1000 325 0 0 350 0 25 350 0 50 350 0 75 350 0 100 350 0 125 350 0 150 350 0 175 350 0 200 350 0 225 350 0 250 350 0 275 350 0 300 350 0 325 350 0 350 350 0 375 350 0 400 350 0 425 350 0 450 350 0 475 350 0 500 350 0 525 350 0 550 350 0 575 350 0 600 350 0 625 350 0 650 350 0 675 350 0 700 350 0 725 350 0 750 350 0 775 350 0 800 350 0 825 350 0 850 350 0 875 350 0 900 350 0 925 350 0 950 350 0 975 350 0 1000 350 0 0 375 0 25 375 0 50 375 0 75 375 0 100 375 0 125 375 0 150 375 0 175 375 0 200 375 0 225 375 0 250 375 0 275 375 0 300 375 0 325 375 0 350 375 0 375 375 0 400 375 0 425 375 0 450 375 0 475 375 0 500 375 0 525 375 0 550 375 0 575 375 0 600 375 0 625 375 0 650 375 0 675 375 0 700 375 0 725 375 0 750 375 0 775 375 0 800 375 0 825 375 0 850 375 0 875 375 0 900 375 0 925 375 0 950 375 0 975 375 0 1000 375 0 0 400 0 25 400 0 50 400 0 75 400 0 100 400 0 125 400 0 150 400 0 175 400 0 200 400 0 225 400 0 250 400 0 275 400 0 300 400 0 325 400 0 350 400 0 375 400 0 400 400 0 425 400 0 450 400 0 475 400 0 500 400 0 525 400 0 550 400 0 575 400 0 600 400 0 625 400 0 650 400 0 675 400 0 700 400 0 725 400 0 750 400 0 775 400 0 800 400 0 825 400 0 850 400 0 875 400 0 900 400 0 925 400 0 950 400 0 975 400 0 1000 400 0 0 425 0 25 425 0 50 425 0 75 425 0 100 425 0 125 425 0 150 425 0 175 425 0 200 425 0 225 425 0 250 425 0 275 425 0 300 425 0 325 425 0 350 425 0 375 425 0 400 425 0 425 425 0 450 425 0 475 425 0 500 425 0 525 425 0 550 425 0 575 425 0 600 425 0 625 425 0 650 425 0 675 425 0 700 425 0 725 425 0 750 425 0 775 425 0 800 425 0 825 425 0 850 425 0 875 425 0 900 425 0 925 425 0 950 425 0 975 425 0 1000 425 0 0 450 0 25 450 0 50 450 0 75 450 0 100 450 0 125 450 0 150 450 0 175 450 0 200 450 0 225 450 0 250 450 0 275 450 0 300 450 0 325 450 0 350 450 0 375 450 0 400 450 0 425 450 0 450 450 0 475 450 0 500 450 0 525 450 0 550 450 0 575 450 0 600 450 0 625 450 0 650 450 0 675 450 0 700 450 0 725 450 0 750 450 0 775 450 0 800 450 0 825 450 0 850 450 0 875 450 0 900 450 0 925 450 0 950 450 0 975 450 0 1000 450 0 0 475 0 25 475 0 50 475 0 75 475 0 100 475 0 125 475 0 150 475 0 175 475 0 200 475 0 225 475 0 250 475 0 275 475 0 300 475 0 325 475 0 350 475 0 375 475 0 400 475 0 425 475 0 450 475 0 475 475 0 500 475 0 525 475 0 550 475 0 575 475 0 600 475 0 625 475 0 650 475 0 675 475 0 700 475 0 725 475 0 750 475 0 775 475 0 800 475 0 825 475 0 850 475 0 875 475 0 900 475 0 925 475 0 950 475 0 975 475 0 1000 475 0 0 500 0 25 500 0 50 500 0 75 500 0 100 500 0 125 500 0 150 500 0 175 500 0 200 500 0 225 500 0 250 500 0 275 500 0 300 500 0 325 500 0 350 500 0 375 500 0 400 500 0 425 500 0 450 500 0 475 500 0 500 500 0 525 500 0 550 500 0 575 500 0 600 500 0 625 500 0 650 500 0 675 500 0 700 500 0 725 500 0 750 500 0 775 500 0 800 500 0 825 500 0 850 500 0 875 500 0 900 500 0 925 500 0 950 500 0 975 500 0 1000 500 0 0 525 0 25 525 0 50 525 0 75 525 0 100 525 0 125 525 0 150 525 0 175 525 0 200 525 0 225 525 0 250 525 0 275 525 0 300 525 0 325 525 0 350 525 0 375 525 0 400 525 0 425 525 0 450 525 0 475 525 0 500 525 0 525 525 0 550 525 0 575 525 0 600 525 0 625 525 0 650 525 0 675 525 0 700 525 0 725 525 0 750 525 0 775 525 0 800 525 0 825 525 0 850 525 0 875 525 0 900 525 0 925 525 0 950 525 0 975 525 0 1000 525 0 0 550 0 25 550 0 50 550 0 75 550 0 100 550 0 125 550 0 150 550 0 175 550 0 200 550 0 225 550 0 250 550 0 275 550 0 300 550 0 325 550 0 350 550 0 375 550 0 400 550 0 425 550 0 450 550 0 475 550 0 500 550 0 525 550 0 550 550 0 575 550 0 600 550 0 625 550 0 650 550 0 675 550 0 700 550 0 725 550 0 750 550 0 775 550 0 800 550 0 825 550 0 850 550 0 875 550 0 900 550 0 925 550 0 950 550 0 975 550 0 1000 550 0 0 575 0 25 575 0 50 575 0 75 575 0 100 575 0 125 575 0 150 575 0 175 575 0 200 575 0 225 575 0 250 575 0 275 575 0 300 575 0 325 575 0 350 575 0 375 575 0 400 575 0 425 575 0 450 575 0 475 575 0 500 575 0 525 575 0 550 575 0 575 575 0 600 575 0 625 575 0 650 575 0 675 575 0 700 575 0 725 575 0 750 575 0 775 575 0 800 575 0 825 575 0 850 575 0 875 575 0 900 575 0 925 575 0 950 575 0 975 575 0 1000 575 0 0 600 0 25 600 0 50 600 0 75 600 0 100 600 0 125 600 0 150 600 0 175 600 0 200 600 0 225 600 0 250 600 0 275 600 0 300 600 0 325 600 0 350 600 0 375 600 0 400 600 0 425 600 0 450 600 0 475 600 0 500 600 0 525 600 0 550 600 0 575 600 0 600 600 0 625 600 0 650 600 0 675 600 0 700 600 0 725 600 0 750 600 0 775 600 0 800 600 0 825 600 0 850 600 0 875 600 0 900 600 0 925 600 0
[...]
POINT_DATA 1681

VECTORS displacement double
0 0 0 -8.194269756061521 8.51020059390257 0 -13.373739668805984 10.95744231988287 0 -17.099098141956908 11.505392675975335 0 -19.932597560592484 11.212167960674684 0 -22.185990480827588 10.47406797532081 0 -24.047261883573615 9.469908879183984 0 -25.63395343724604 8.290963587213541 0 -27.02217957257284 6.988551016985974 0 -28.263083870540992 5.59381569719848 0 -29.392309538328956 4.126776033192927 0 -30.43555280696963 2.600834491702316 0 -31.411905122802633 1.0252125615283443 0 -32.335929559231616 -0.5936365366638592 0 -33.21899770555694 -2.251156426373966 0 -34.070183789438715 -3.944123154642534 0 -34.896886792720125 -5.670266311962736 0 -35.70528142649996 -7.428008981052752 0 -36.500659464720094 -9.216288030399252 0 -37.28770039443159 -11.03443175075474 0 -38.070697277445625 -12.882080898098627 0 -38.85375617657646 -14.759144928746581 0 -39.64098335821258 -16.665789191346494 0 -40.43667264737517 -18.602451999051414 0 -41.24550531584642 -20.56989347626952 0 -42.07277672523032 -22.569281428426233 0 -42.924668081368125 -24.602323918830244 0 -43.80858915679971 -26.671464831950992 0 -44.73363077176597 -28.78016935534274 0 -45.71118801120877 -30.9333446232062 0 -46.75585359843959 -33.137973903757434 0 -47.88674836048834 -35.404105520660764 0 -49.12957554171055 -37.74646192681009 0 -50.51989883982602 -40.18719001116574 0 -52.108518064639455 -42.76081969814322 0 -53.970444870221385 -45.523705276876676 0 -56.21992311260801 -48.572986063263414 0 -59.03490669004949 -52.08663053047983 0 -62.69362619999556 -56.411730610310094 0 -67.61861371965105 -62.25794044375175 0 -74.45979084953282 -70.90177271708278 0 -13.448491159538314 4.186682624871502 0 -14.907657747042343 9.388370816328681 0 -16.642650096625665 11.506087359470179 0 -18.46791396600599 12.01889625101166 0 -20.22473004463522 11.703132898262531 0 -21.844168767525176 10.931792854017825 0 -23.313226685711754 9.890221524435818 0 -24.643571361113324 8.6754952788204 0 -25.854782375438646 7.341547148827737 0 -26.96699148970433 5.920162517596754 0 -27.998199807960134 4.431098563619165 0 -28.9636376912405 2.8871811471508586 0 -29.875912458536053 1.2970086254961668 0 -30.745399600027127 -0.33352988158990815 0 -31.58066264584566 -2.000351752759888 0 -32.38882904562747 -3.7006153138165203 0 -33.175906511244264 -5.432350051584829 0 -33.94704481902632 -7.194207519657153 0 -34.70675384474106 -8.985291296847196 0 -35.459088951925374 -10.805042021444281 0 -36.207813587417476 -12.653163406643317 0 -36.95654752018724 -14.529581090107309 0 -37.70890809851364 -16.434430121408965 0 -38.468651345373516 -18.368069901989934 0 -39.239819699230935 -20.331128133726526 0 -40.02690375453136 -22.324578359481848 0 -40.83502648010148 -24.34985963505392 0 -41.670160071338984 -26.409052728956986 0 -42.53938762379708 -28.50513671721399 0 -43.45122346908225 -30.642366200086038 0 -44.41600514909744 -32.826839212348965 0 -45.446360979438495 -35.06738304385709 0 -46.55772589646417 -37.37699954708724 0 -47.76879090603132 -39.77534979604575 0 -49.101548413631015 -42.29327307062112 0 -50.5800547184811 -44.981487021079914 0 -52.22576510871835 -47.92827769809253 0 -54.04441675438633 -51.297378212990786 0 -55.992732456866655 -55.41386158641425 0 -57.88904890323048 -60.987749918160276 0 -58.93520091812472 -70.20792072253315 0 -18.168928620112005 6.7134914731998165 0 -18.66966049911233 9.914984627374235 0 -19.237373433283448 11.61955352088311 0 -20.00930811021274 12.13014603850105 0 -20.937891414979635 11.878338912231413 0 -21.94395986674734 11.157283961986323 0 -22.967726577443674 10.143106012426989 0 -23.97408362631715 8.938928737012189 0 -24.94604309770938 7.6055633699463545 0 -25.877678097869133 6.179654875273964 0 -26.76910432218781 4.683903875145507 0 -27.623407953577225 3.132773254275402 0 -28.4449163112238 1.5357090803742353 0 -29.238286630302422 -0.10099867403535066 0 -30.008061628842043 -1.7731075003836194 0 -30.758480432994077 -3.477738829462099 0 -31.49342471156984 -5.2129424273381355 0 -32.21643417261363 -6.977411154324538 0 -32.93075632912441 -8.770291256515337 0 -33.63941235864134 -10.591056741609659 0 -34.345270006223416 -12.439429595933387 0 -35.05111930765264 -14.3153354309862 0 -35.75974936649839 -16.21888917180333 0 -36.47402551074844 -18.150409057621687 0 -37.19696633679848 -20.110460429891575 0 -37.931819499540204 -22.099934268117664 0 -38.68213335854477 -24.12017002885863 0 -39.451818011354355 -26.1731392882434 0 -40.245182334820626 -28.261718158493654 0 -41.066920516922835 -30.390096552058825 0 -41.92199672804796 -32.56440916439896 0 -42.81532994925988 -34.79374271578156 0 -43.751094507504845 -37.09180941674148 0 -44.731295519693425 -39.47984487920239 0 -45.75300983247668 -41.99182540759303 0 -46.80327149841671 -44.6841709705837 0 -47.85013601967807 -47.65419367490522 0 -48.82875971688 -51.0754322156958 0 -49.62606698043532 -55.26429666857599 0 -50.10123996243204 -60.78661531543963 0 -50.67887281735946 -67.94940443376231 0 -20.222338786596705 8.747119222549069 0 -20.53465155604233 10.524919909038507 0 -20.74909057244234 11.693765403035679 0 -21.053720040256454 12.087185856883401 0 -21.501131094628775 11.862055345098732 0 -22.07296205572849 11.199521292813364 0 -22.730954155450686 10.23831753727934 0 -23.439543206327993 9.073046676479871 0 -24.17234235814763 7.765555994781746 0 -24.912012435723334 6.355774329491414 0 -25.648192187850395 4.869518318604594 0 -26.375333899764048 3.323615397995306 0 -27.09099619911977 1.729146852201677 0 -27.794646307413004 0.09348022482683628 0 -28.486872504437592 -1.578451701123843 0 -29.168888548534063 -3.28333623383493 0 -29.842233323726774 -5.018953721692263 0 -30.508596457103845 -6.783831596653353 0 -31.169723386550487 -8.57701548120499 0 -31.827369608775513 -10.397918840985373 0 -32.483284602943996 -12.246228109513396 0 -33.13921266873157 -14.121849825262318 0 -33.796901841041894 -16.02489266791946 0 -34.45811394001063 -17.95568195424923 0 -35.12462908744593 -19.91480824860332 0 -35.798236713670086 -21.90321618487531 0 -36.480701861603826 -23.922345434225175 0 -37.17368967668412 -25.97434450541125 0 -37.878620930682004 -28.062392254724905 0 -38.59641498291343 -30.19118604705765 0 -39.32705043976874 -32.36769738088877 0 -40.06883409122913 -34.60236951212703 0 -40.81721390846259 -36.911061059847455 0 -41.562913077755276 -39.318261326540124 0 -42.28915626057256 -41.862457607339636 0 -42.968010131901444 -44.60500036128749 0 -43.55702082857704 -47.643995685195804 0 -44.00147867487517 -51.13249879336386 0 -44.2620585697455 -55.28433080358548 0 -44.437917011043865 -60.26086200042453 0 -44.88972940536422 -65.8707087977459 0 -21.01569699862817 10.410183002625834 0 -21.281042924150388 11.217911260524383 0 -21.402734342797913 11.857358887008573 0 -21.523480766585777 12.044575542550321 0 -21.72439168547663 11.777623288642715 0 -22.028483803035744 11.140401147060166 0 -22.42729781875664 10.223945072325424 0 -22.900860045933825 9.10283073169847 0 -23.428201318042312 7.832188053128479 0 -23.991613722297718 6.450920957376281 0 -24.577666594740073 4.985890320739415 0 -25.17684176514913 3.45546641559623 0 -25.782738519203455 1.872171081854358 0 -26.39126568899446 0.2445336626849573 0 -26.999968487947058 -1.4216384908893862 0 -27.6075169196701 -3.122398916527438 0 -28.213336600088237 -4.855079592853487 0 -28.81735069862555 -6.617896820744244 0 -29.419802999868196 -8.409685331100762 0 -30.021137465973162 -10.22972155539786 0 -30.621915280049652 -12.077611251679583 0 -31.222754813375925 -13.953226386294519 0 -31.82428295416784 -15.856683058710074 0 -32.42708777115587 -17.7883576102618 0 -33.03166260255448 -19.748942894723942 0 -33.63833030222603 -21.739551949283292 0 -34.247133330594686 -23.761883063069725 0 -34.85767028971497 -25.81846996099874 0 -35.468851964681846 -27.913055691292563 0 -36.078539863558454 -30.051152147510155 0 -36.68301895215314 -32.24088374814005 0 -37.27624929531411 -34.4942693787298 0 -37.84885555852016 -36.82917415531331 0 -38.38689438566507 -39.272246897377485 0 -38.870702070218435 -41.86316761166873 0 -39.27484056833215 -44.66015634179081 0 -39.5719277013075 -47.744949030741815 0 -39.74701576340535 -51.21938183000093 0 -39.83442646031494 -55.169277438343094 0 -39.96317637454432 -59.569650146235745 0 -40.33802641944447 -64.14963520770775 0 -21.09241477890608 11.781835150931693 0 -21.336345475856646 11.93269791444995 0 -21.442605827997195 12.11445612488802 0 -21.501663680012616 12.060763016666964 0 -21.5878300315191 11.698478584322316 0 -21.74029225587484 11.045500285318722 0 -21.97058199419849 10.150048892577145 0 -22.27437000062263 9.062999272546218 0 -22.640423124075593 7.827836265346845 0 -23.05590113583672 6.478514911112622 0 -23.508956417724363 5.0403366239321725 0 -23.98971807028232 3.531664237682137 0 -24.4904376026898 1.965617489358226 0 -25.00526391591415 0.3514763748272467 0 -25.529897571562213 -1.3042438310279671 0 -26.061243117290577 -2.9970011052291525 0 -26.597106741950977 -4.723656825411245 0 -27.135950947155795 -6.482071565471491 0 -27.676702055093926 -8.2708226896804 0 -28.218600493962402 -10.089011846997492 0 -28.761082503413014 -11.936140399982479 0 -29.30368235242231 -13.812038641742992 0 -29.845944955173145 -15.716840858310126 0 -30.387339239194972 -17.651003535681767 0 -30.927162457853758 -19.615368971580683 0 -31.464424720818275 -21.611281948750253 0 -31.997701355056098 -23.640773773743906 0 -32.52493855820247 -25.706836859135166 0 -33.043195981067655 -27.813825255560268 0 -33.548310511483194 -29.968033111852908 0 -34.034473722753326 -32.178523690233355 0 -34.49374264613397 -34.4583014107223 0 -34.91557417012365 -36.825919864304474 0 -35.2866366193687 -39.3075445376886 0 -35.5914976152749 -41.93919398056236 0 -35.81544412815435 -44.76801849010793 0 -35.95168346893635 -47.849349050008094 0 -36.015532965172724 -51.23228540670131 0 -36.062481138101084 -54.92501767984933 0 -36.191999386420434 -58.840337023276824 0 -36.50959472483135 -62.73871958173147 0 -20.713707692585103 12.928267209088151 0 -20.938797010681867 12.625532617211318 0 -21.047741211622593 12.43478478933218 0 -21.092933730768745 12.143159236644442 0 -21.131599310122503 11.65635926709182 0 -21.204019199169466 10.954680857256124 0 -21.331105865714896 10.054494472307482 0 -21.51922207563306 8.984995516725427 0 -21.76592467192041 7.776572300137953 0 -22.064423556182025 6.455966358012529 0 -22.406444845783003 5.044885421004504 0 -22.783826816157774 3.560162092749148 0 -23.189274725353414 2.0144808691065514 0 -23.61661880217612 0.41721757052852665 0 -24.060808532518774 -1.2247964109179919 0 -24.51778510279642 -2.9066444729803176 0 -24.98431100956894 -4.6248333746582695 0 -25.457796658076347 -6.376922994497336 0 -25.93614103508528 -8.161255633076063 0 -26.417591152791296 -9.976765190994579 0 -26.90061862413014 -11.822850779503279 0 -27.38380869647099 -13.699303983289763 0 -27.865755693193876 -15.606283491801758 0 -28.34495816734407 -17.544335107965903 0 -28.81970670540923 -19.51445944711554 0 -29.287957124809903 -21.518234278729658 0 -29.747182026056738 -23.55800377719252 0 -30.194195033345554 -25.637153143996525 0 -30.624946216085203 -27.760493881665028 0 -31.034297395346595 -29.934790872720537 0 -31.415808525112315 -32.16946252050624 0 -31.761612312241642 -34.477467145659546 0 -32.062542205575646 -36.876323749145655 0 -32.30883407252306 -39.38904162173539 0 -32.49196025389476 -42.04433528604567 0 -32.60840979579187 -44.874715568833075 0 -32.66611145295996 -47.90986432147628 0 -32.69251794421325 -51.16207970955588 0 -32.73911692877119 -54.60271622439888 0 -32.87278435392079 -58.13421107219759 0 -33.14552971449195 -61.568450385536096 0 -20.021588463341043 13.899577374855687 0 -20.227121295606576 13.27368834553841 0 -20.339232929954413 12.786943840134217 0 -20.386441643024238 12.279084014600182 0 -20.40928421465588 11.658291167475364 0 -20.44260165692312 10.887089926951765 0 -20.509564556941765 9.961065893773911 0 -20.622186270872504 8.89229061973179 0 -20.7841725986825 7.6990212851749 0 -20.99395402640763 6.40016483225382 0 -21.24709243645848 5.012723722450065 0 -21.53792509264838 3.550903406547775 0 -21.860568050256827 2.0260546389858933 0 -22.20946027990367 0.4469803791773682 0 -22.57960960309864 -1.1796401119369646 0 -22.966659962059456 -2.848829323857545 0 -23.36686002711619 -4.556942102033196 0 -23.77698271459903 -6.301364516849272 0 -24.194224119267947 -8.080280825091158 0 -24.61609674109902 -9.892502335330773 0 -25.040323516070377 -11.737350897413544 0 -25.46473424342088 -13.614590977263557 0 -25.887163260908483 -15.52440656907488 0 -26.30534585538177 -17.46742195929305 0 -26.716810512015183 -19.444768360911407 0 -27.118764674264316 -21.458201572108326 0 -27.507973590257507 -23.51027888558294 0 -27.880635996808284 -25.604605922335995 0 -28.23226860791843 -27.74616444398897 0 -28.557626644333574 -29.941727201646607 0 -28.850714656030693 -32.20034849135449 0 -29.104986931594574 -34.5338754594023 0 -29.31390536008071 -36.95733035512305 0 -29.47210994022112 -39.48882936161597 0 -29.57752035469588 -42.148390414872786 0 -29.634582305299833 -44.954569397453504 0 -29.658280239700975 -47.91762645706044 0 -29.677156751349855 -51.02848734763509 0 -29.731847039428786 -54.24463619629991 0 -29.86511609383905 -57.476830271467605 0 -30.101602237047402 -60.58291982923896 0 -19.100686351939796 14.731740676129162 0 -19.286396885635853 13.86773065931816 0 -19.39812057190825 13.14702243288244 0 -19.450486879005915 12.451069090662068 0 -19.47093792162055 11.699380463414537 0 -19.48715793430727 10.848590085341595 0 -19.52078778242972 9.882231296480647 0 -19.585838891006805 8.800165409923244 0 -19.689546786440655 7.61065209774274 0 -19.834073589065834 6.325273247392782 0 -20.01822015917528 4.956043870939089 0 -20.238812540046585 3.5139649796828794 0 -20.49169533403584 2.008438427643162 0 -20.77238012018448 0.44715381732330955 0 -21.076430975155134 -1.1637927815246236 0 -21.399666231408162 -2.819686733483166 0 -21.738239743899967 -4.516964048500566 0 -22.08864734531956 -6.252999045483228 0 -22.447689200819834 -8.025926736046225 0 -22.81240749245057 -9.834505395156432 0 -23.18001098378069 -11.678019838410561 0 -23.54779284662321 -13.556224266267458 0 -23.91304500525238 -15.469323656929696 0 -24.27297068830835 -17.417993714306075 0 -24.624596644711264 -19.40344075250397 0 -24.964687635006403 -21.427504155782295 0 -25.289668750311055 -23.492804571289593 0 -25.595566651541663 -25.602939680969197 0 -25.877990274282055 -27.76272421635648 0 -26.132186695575445 -29.97845808264212 0 -26.35323052672711 -32.25817957471985 0 -26.536435610707798 -34.61180956179965 0 -26.6781101741597 -37.05100414667857 0 -26.776789147180303 -39.58839883168467 0 -26.83501525604433 -42.23576513493045 0 -26.86150332248256 -45.00050362136782 0 -26.873013488785258 -47.88006551980939 0 -26.894562215599354 -50.85454605680974 0 -26.956150783927338 -53.878827868334334 0 -27.084624606086713 -56.8769287479509 0 -27.290945888625572 -59.74215478376395 0 -18.005439683053204 15.45017442199945 0 -18.171764672437828 14.405190961440834 0 -18.279554989085085 13.498834689086195 0 -18.33573253873328 12.643022923381855 0 -18.35840684666022 11.770321268755442 0 -18.36856582670996 10.837736110033962 0 -18.384755233236465 9.822765593122558 0 -18.420776675639456 8.717271667053954 0 -18.485391867015483 7.521922966693617 0 -18.583036015299427 6.242070136026195 0 -18.71486777701433 4.885030947402219 0 -18.879792486571933 3.458469187739025 0 -19.07530502406349 1.969524784199819 0 -19.298116462932477 0.4244181114152892 0 -19.544584080911545 -1.171668337925868 0 -19.81098384736558 -2.8145601298064804 0 -20.093666040036148 -4.500992888192564 0 -20.389128705914796 -6.228493088894691 0 -20.694035757996794 -7.995263776435847 0 -21.005199110194628 -9.800088853030813 0 -21.319538326511527 -11.642262555141018 0 -21.634026976321294 -13.521547091654174 0 -21.94563214013087 -15.438159780961563 0 -22.251252157178744 -17.392790445059113 0 -22.547657695117593 -19.386649583204264 0 -22.831442657481023 -21.42154727947781 0 -23.098994622748098 -23.50000105202727 0 -23.346499911362407 -25.625366660925195 0 -23.570006569157783 -27.80197726143141 0 -23.765579842785726 -30.035260176278936 0 -23.929598269290775 -32.33177277860915 0 -24.05925040016686 -34.699055020862524 0 -24.153291877619193 -37.14513447845352 0 -24.213087959526682 -39.677450074304765 0 -24.243862094903072 -42.300917994608376 0 -24.255862904710273 -45.01491903411805 0 -24.26486626554322 -47.80922930091175 0 -24.291174318735518 -50.65938559774706 0 -24.356294709802988 -53.52259347462797 0 -24.477001492718387 -56.335861287237286 0 -24.657543962660544 -59.01838379551105 0 -16.773221893461976 16.072883425991087 0 -16.920984741134355 14.886820706507484 0 -17.022212366497403 13.832062147123924 0 -17.079707709163046 12.842039061181543 0 -17.105254271818733 11.861184947709452 0 -17.11434062028922 10.849700261310877 0 -17.122089547460575 9.782805285672461 0 -17.140962802487042 8.647548805470612 0 -17.17992463396422 7.439196076623972 0 -17.24452122428533 6.1581394808782575 0 -17.33741087027824 4.807602742942472 0 -17.459035714613112 3.392089531592636 0 -17.608263771145552 1.9164166408147558 0 -17.78292499137029 0.38516195422044 0 -17.9802210900601 -1.1976143023919856 0 -18.19701723913175 -2.8284800424440824 0 -18.43003524179458 -4.504646088877272 0 -18.675970135815856 -6.223932798877078 0 -18.931550221731616 -7.984718399976393 0 -19.193557058743867 -9.78588704878947 0 -19.458818470982298 -11.626787060391592 0 -19.72418474034538 -13.507205110524447 0 -19.986496211506903 -15.427359405380143 0 -20.242549613365505 -17.387912995832846 0 -20.48907058512335 -19.390006861646263 0 -20.72270128628161 -21.435310385130744 0 -20.940014702000227 -23.526083517746567 0 -21.137571424273933 -25.66523919148609 0 -21.31204015118185 -27.856384847016688 0 -21.460409077288958 -30.103806548751344 0 -21.580319416542228 -32.41233644664118 0 -21.670549352086997 -34.787014420989784 0 -21.73165728530105 -37.23242250332662 0 -21.766743511695143 -39.75155059779186 0 -21.78219636923335 -42.34407203626667 0 -21.788155377280653 -45.00400451466852 0 -21.798290336053743 -47.716932421096075 0 -21.828448339385282 -50.45725800948301 0 -21.893865232534395 -53.18626602799448 0 -22.005039640681293 -55.852030818934914 0 -22.163005405742165 -58.39227425221346 0 -15.431151068738178 16.61276992649802 0 -15.56129269380461 15.31463422352483 0 -15.654217362215997 14.140362011178624 0 -15.71061599813325 13.038423111710262 0 -15.738099647455373 11.963050275091069 0 -15.747925764838111 10.878555282927804 0 -15.752052854029268 9.760021246578633 0 -15.761158523271028 8.591897823565818 0 -15.783636385683762 7.365817793685177 0 -15.825323656631179 6.078425159090746 0 -15.889672432647297 4.729568065237784 0 -15.978134554425415 3.320945422103406 0 -16.090607422324016 1.8551678686000586 0 -16.22585412780141 0.3351478854700323 0 -16.381857551140694 -1.2362702427924246 0 -16.556096533307706 -2.8565167888448206 0 -16.745747651918403 -4.523397820484275 0 -16.947823162657873 -6.235133460545275 0 -17.1592578490751 -7.990362079089464 0 -17.376957241228354 -9.788129473476635 0 -17.5978183952949 -11.627875109707452 0 -17.818733029848946 -13.50942267516528 0 -18.036581763864316 -15.432978815848758 0 -18.248227752399405 -17.399141343569276 0 -18.450518307122646 -19.40891578033133 0 -18.640304184860053 -21.463736223802922 0 -18.81448810103875 -23.565482465483747 0 -18.970116462798625 -25.71647927312558 0 -19.10453071422299 -27.919454933907005 0 -19.215595695946316 -30.17742396285098 0 -19.30201945749207 -32.493443639150364 0 -19.363767735033715 -34.87017822404975 0 -19.402550979672554 -37.309194750783576 0 -19.422316976415043 -39.80992194080981 0 -19.42961793067859 -42.36824516808677 0 -19.43365111538055 -44.974799718666766 0 -19.4457294667956 -47.61316351619074 0 -19.47796948412549 -50.258318552949376 0 -19.54112989401233 -52.875905089871054 0 -19.64180789765896 -55.42288158636323 0 -19.77956893553995 -57.850176925385576 0 -13.999850435554247